 Entering Gaussian System, Link 0=g16
 Initial command:
 /afs/ics.muni.cz/software/g16-C.01/avx2/g16/l1.exe "/scratch/berdard/job_12298665.meta-pbs.metacentrum.cz/Gau-36206.inp" -scrdir="/scratch/berdard/job_12298665.meta-pbs.metacentrum.cz/"
 Entering Link 1 = /afs/ics.muni.cz/software/g16-C.01/avx2/g16/l1.exe PID=     36207.
  
 Copyright (c) 1988-2019, Gaussian, Inc.  All Rights Reserved.
  
 This is part of the Gaussian(R) 16 program.  It is based on
 the Gaussian(R) 09 system (copyright 2009, Gaussian, Inc.),
 the Gaussian(R) 03 system (copyright 2003, Gaussian, Inc.),
 the Gaussian(R) 98 system (copyright 1998, Gaussian, Inc.),
 the Gaussian(R) 94 system (copyright 1995, Gaussian, Inc.),
 the Gaussian 92(TM) system (copyright 1992, Gaussian, Inc.),
 the Gaussian 90(TM) system (copyright 1990, Gaussian, Inc.),
 the Gaussian 88(TM) system (copyright 1988, Gaussian, Inc.),
 the Gaussian 86(TM) system (copyright 1986, Carnegie Mellon
 University), and the Gaussian 82(TM) system (copyright 1983,
 Carnegie Mellon University). Gaussian is a federally registered
 trademark of Gaussian, Inc.
  
 This software contains proprietary and confidential information,
 including trade secrets, belonging to Gaussian, Inc.
  
 This software is provided under written license and may be
 used, copied, transmitted, or stored only in accord with that
 written license.
  
 The following legend is applicable only to US Government
 contracts under FAR:
  
                    RESTRICTED RIGHTS LEGEND
  
 Use, reproduction and disclosure by the US Government is
 subject to restrictions as set forth in subparagraphs (a)
 and (c) of the Commercial Computer Software - Restricted
 Rights clause in FAR 52.227-19.
  
 Gaussian, Inc.
 340 Quinnipiac St., Bldg. 40, Wallingford CT 06492
  
  
 ---------------------------------------------------------------
 Warning -- This program may not be used in any manner that
 competes with the business of Gaussian, Inc. or will provide
 assistance to any competitor of Gaussian, Inc.  The licensee
 of this program is prohibited from giving any competitor of
 Gaussian, Inc. access to this program.  By using this program,
 the user acknowledges that Gaussian, Inc. is engaged in the
 business of creating and licensing software in the field of
 computational chemistry and represents and warrants to the
 licensee that it is not a competitor of Gaussian, Inc. and that
 it will not use this program in any manner prohibited above.
 ---------------------------------------------------------------
  

 Cite this work as:
 Gaussian 16, Revision C.01,
 M. J. Frisch, G. W. Trucks, H. B. Schlegel, G. E. Scuseria, 
 M. A. Robb, J. R. Cheeseman, G. Scalmani, V. Barone, 
 G. A. Petersson, H. Nakatsuji, X. Li, M. Caricato, A. V. Marenich, 
 J. Bloino, B. G. Janesko, R. Gomperts, B. Mennucci, H. P. Hratchian, 
 J. V. Ortiz, A. F. Izmaylov, J. L. Sonnenberg, D. Williams-Young, 
 F. Ding, F. Lipparini, F. Egidi, J. Goings, B. Peng, A. Petrone, 
 T. Henderson, D. Ranasinghe, V. G. Zakrzewski, J. Gao, N. Rega, 
 G. Zheng, W. Liang, M. Hada, M. Ehara, K. Toyota, R. Fukuda, 
 J. Hasegawa, M. Ishida, T. Nakajima, Y. Honda, O. Kitao, H. Nakai, 
 T. Vreven, K. Throssell, J. A. Montgomery, Jr., J. E. Peralta, 
 F. Ogliaro, M. J. Bearpark, J. J. Heyd, E. N. Brothers, K. N. Kudin, 
 V. N. Staroverov, T. A. Keith, R. Kobayashi, J. Normand, 
 K. Raghavachari, A. P. Rendell, J. C. Burant, S. S. Iyengar, 
 J. Tomasi, M. Cossi, J. M. Millam, M. Klene, C. Adamo, R. Cammi, 
 J. W. Ochterski, R. L. Martin, K. Morokuma, O. Farkas, 
 J. B. Foresman, and D. J. Fox, Gaussian, Inc., Wallingford CT, 2019.
 
 ******************************************
 Gaussian 16:  ES64L-G16RevC.01  3-Jul-2019
                 1-Aug-2022 
 ******************************************
 %CPU=18,19,20,21,22,23,24,25
 SetSPE:  set environment variable "MP_BIND" = "yes"
 SetSPE:  set environment variable "MP_BLIST" = "18,19,20,21,22,23,24,25"
 Will use up to    8 processors via shared memory.
 %mem=8192MB
 %rwf=/scratch/berdard/job_12298665.meta-pbs.metacentrum.cz/,9728MB
 %chk=01_lum_s0_opt.chk
 ----------------------------------------------------------------------
 #p opt freq=(raman,savenm) bp86/cc-pvdz scrf=(solvent=water,pcm) empir
 icaldispersion=gd3bj scf=maxcyc=500
 ----------------------------------------------------------------------
 1/18=20,19=15,26=3,38=1/1,3;
 2/9=110,12=2,17=6,18=5,40=1/2;
 3/5=16,11=2,25=1,30=1,70=2201,71=1,72=1,74=404,124=41/1,2,3;
 4//1;
 5/5=2,7=500,38=5,53=1/2;
 6/7=2,8=2,9=2,10=2,28=1/1;
 7/92=1/1,2,3,16;
 1/18=20,19=15,26=3/3(2);
 2/9=110/2;
 99//99;
 2/9=110/2;
 3/5=16,11=2,25=1,30=1,70=2205,71=1,72=1,74=404,124=41/1,2,3;
 4/5=5,16=3,69=1/1;
 5/5=2,7=500,38=5,53=1/2;
 7/92=1/1,2,3,16;
 1/18=20,19=15,26=3/3(-5);
 2/9=110/2;
 6/7=2,8=2,9=2,10=2,19=2,28=1/1;
 99/9=1/99;
 Leave Link    1 at Mon Aug  1 12:52:59 2022, MaxMem=  1073741824 cpu:               0.4 elap:               0.1
 (Enter /afs/ics.muni.cz/software/g16-C.01/avx2/g16/l101.exe)
 ------------------------------------
 lumiflavin ground state optimiyation
 ------------------------------------
 Symbolic Z-matrix:
 Charge =  0 Multiplicity = 1
 N                     0.14941   0.70653  -0.38896 
 C                    -0.23281   2.03309  -0.36847 
 O                    -1.43262   2.32109  -0.3491 
 N                     0.73621   2.99652  -0.37033 
 C                     2.09662   2.75545  -0.29585 
 O                     2.89637   3.7      -0.24294 
 C                     2.48098   1.36094  -0.29067 
 N                     3.77722   1.02562  -0.21626 
 C                     4.06557  -0.30836  -0.19545 
 C                     5.39     -0.71109  -0.09933 
 C                     5.78228  -2.06953  -0.06238 
 C                     7.22352  -2.4171    0.04659 
 C                     4.79286  -3.07108  -0.12347 
 C                     5.15857  -4.52359  -0.07521 
 C                     3.46639  -2.68482  -0.22621 
 C                     3.07395  -1.3247   -0.27351 
 N                     1.75659  -0.94766  -0.39712 
 C                     1.43092   0.40341  -0.36331 
 C                     0.66725  -1.91521  -0.5412 
 H                     0.42659   3.98444  -0.41279 
 H                     6.14928   0.058    -0.05354 
 H                     7.53171  -3.05655  -0.78608 
 H                     7.8533   -1.53128   0.06231 
 H                     7.41033  -2.99864   0.9552 
 H                     5.70147  -4.76355   0.84191 
 H                     4.27044  -5.15052  -0.12016 
 H                     5.8097   -4.79341  -0.91015 
 H                     2.71127  -3.4522   -0.24245 
 H                     1.04384  -2.81272  -0.98567 
 H                    -0.09699  -1.50152  -1.16545 
 H                     0.25879  -2.1385    0.42223 
 
 ITRead=  0  0  0  0  0  0  0  0  0  0  0  0  0  0  0  0  0  0  0  0
 ITRead=  0  0  0  0  0  0  0  0  0  0  0
 MicOpt= -1 -1 -1 -1 -1 -1 -1 -1 -1 -1 -1 -1 -1 -1 -1 -1 -1 -1 -1 -1
 MicOpt= -1 -1 -1 -1 -1 -1 -1 -1 -1 -1 -1
 NAtoms=     31 NQM=       31 NQMF=       0 NMMI=      0 NMMIF=      0
                NMic=       0 NMicF=      0.
                    Isotopes and Nuclear Properties:
 (Nuclear quadrupole moments (NQMom) in fm**2, nuclear magnetic moments (NMagM)
  in nuclear magnetons)

  Atom         1           2           3           4           5           6           7           8           9          10
 IAtWgt=          14          12          16          14          12          16          12          14          12          12
 AtmWgt=  14.0030740  12.0000000  15.9949146  14.0030740  12.0000000  15.9949146  12.0000000  14.0030740  12.0000000  12.0000000
 NucSpn=           2           0           0           2           0           0           0           2           0           0
 AtZEff=  -0.0000000  -0.0000000  -0.0000000  -0.0000000  -0.0000000  -0.0000000  -0.0000000  -0.0000000  -0.0000000  -0.0000000
 NQMom=    2.0440000   0.0000000   0.0000000   2.0440000   0.0000000   0.0000000   0.0000000   2.0440000   0.0000000   0.0000000
 NMagM=    0.4037610   0.0000000   0.0000000   0.4037610   0.0000000   0.0000000   0.0000000   0.4037610   0.0000000   0.0000000
 AtZNuc=   7.0000000   6.0000000   8.0000000   7.0000000   6.0000000   8.0000000   6.0000000   7.0000000   6.0000000   6.0000000

  Atom        11          12          13          14          15          16          17          18          19          20
 IAtWgt=          12          12          12          12          12          12          14          12          12           1
 AtmWgt=  12.0000000  12.0000000  12.0000000  12.0000000  12.0000000  12.0000000  14.0030740  12.0000000  12.0000000   1.0078250
 NucSpn=           0           0           0           0           0           0           2           0           0           1
 AtZEff=  -0.0000000  -0.0000000  -0.0000000  -0.0000000  -0.0000000  -0.0000000  -0.0000000  -0.0000000  -0.0000000  -0.0000000
 NQMom=    0.0000000   0.0000000   0.0000000   0.0000000   0.0000000   0.0000000   2.0440000   0.0000000   0.0000000   0.0000000
 NMagM=    0.0000000   0.0000000   0.0000000   0.0000000   0.0000000   0.0000000   0.4037610   0.0000000   0.0000000   2.7928460
 AtZNuc=   6.0000000   6.0000000   6.0000000   6.0000000   6.0000000   6.0000000   7.0000000   6.0000000   6.0000000   1.0000000

  Atom        21          22          23          24          25          26          27          28          29          30
 IAtWgt=           1           1           1           1           1           1           1           1           1           1
 AtmWgt=   1.0078250   1.0078250   1.0078250   1.0078250   1.0078250   1.0078250   1.0078250   1.0078250   1.0078250   1.0078250
 NucSpn=           1           1           1           1           1           1           1           1           1           1
 AtZEff=  -0.0000000  -0.0000000  -0.0000000  -0.0000000  -0.0000000  -0.0000000  -0.0000000  -0.0000000  -0.0000000  -0.0000000
 NQMom=    0.0000000   0.0000000   0.0000000   0.0000000   0.0000000   0.0000000   0.0000000   0.0000000   0.0000000   0.0000000
 NMagM=    2.7928460   2.7928460   2.7928460   2.7928460   2.7928460   2.7928460   2.7928460   2.7928460   2.7928460   2.7928460
 AtZNuc=   1.0000000   1.0000000   1.0000000   1.0000000   1.0000000   1.0000000   1.0000000   1.0000000   1.0000000   1.0000000

  Atom        31
 IAtWgt=           1
 AtmWgt=   1.0078250
 NucSpn=           1
 AtZEff=  -0.0000000
 NQMom=    0.0000000
 NMagM=    2.7928460
 AtZNuc=   1.0000000
 Leave Link  101 at Mon Aug  1 12:52:59 2022, MaxMem=  1073741824 cpu:               2.1 elap:               0.3
 (Enter /afs/ics.muni.cz/software/g16-C.01/avx2/g16/l103.exe)

 GradGradGradGradGradGradGradGradGradGradGradGradGradGradGradGradGradGrad
 Berny optimization.
 Initialization pass.
                           ----------------------------
                           !    Initial Parameters    !
                           ! (Angstroms and Degrees)  !
 --------------------------                            --------------------------
 ! Name  Definition              Value          Derivative Info.                !
 --------------------------------------------------------------------------------
 ! R1    R(1,2)                  1.3807         estimate D2E/DX2                !
 ! R2    R(1,18)                 1.3171         estimate D2E/DX2                !
 ! R3    R(2,3)                  1.234          estimate D2E/DX2                !
 ! R4    R(2,4)                  1.3665         estimate D2E/DX2                !
 ! R5    R(4,5)                  1.3836         estimate D2E/DX2                !
 ! R6    R(4,20)                 1.0362         estimate D2E/DX2                !
 ! R7    R(5,6)                  1.2388         estimate D2E/DX2                !
 ! R8    R(5,7)                  1.4465         estimate D2E/DX2                !
 ! R9    R(7,8)                  1.341          estimate D2E/DX2                !
 ! R10   R(7,18)                 1.4229         estimate D2E/DX2                !
 ! R11   R(8,9)                  1.3649         estimate D2E/DX2                !
 ! R12   R(9,10)                 1.3876         estimate D2E/DX2                !
 ! R13   R(9,16)                 1.4221         estimate D2E/DX2                !
 ! R14   R(10,11)                1.4144         estimate D2E/DX2                !
 ! R15   R(10,21)                1.0817         estimate D2E/DX2                !
 ! R16   R(11,12)                1.4866         estimate D2E/DX2                !
 ! R17   R(11,13)                1.4092         estimate D2E/DX2                !
 ! R18   R(12,22)                1.0942         estimate D2E/DX2                !
 ! R19   R(12,23)                1.087          estimate D2E/DX2                !
 ! R20   R(12,24)                1.0948         estimate D2E/DX2                !
 ! R21   R(13,14)                1.4986         estimate D2E/DX2                !
 ! R22   R(13,15)                1.3854         estimate D2E/DX2                !
 ! R23   R(14,25)                1.0924         estimate D2E/DX2                !
 ! R24   R(14,26)                1.088          estimate D2E/DX2                !
 ! R25   R(14,27)                1.0927         estimate D2E/DX2                !
 ! R26   R(15,16)                1.4164         estimate D2E/DX2                !
 ! R27   R(15,28)                1.0767         estimate D2E/DX2                !
 ! R28   R(16,17)                1.3758         estimate D2E/DX2                !
 ! R29   R(17,18)                1.3902         estimate D2E/DX2                !
 ! R30   R(17,19)                1.4641         estimate D2E/DX2                !
 ! R31   R(19,29)                1.07           estimate D2E/DX2                !
 ! R32   R(19,30)                1.07           estimate D2E/DX2                !
 ! R33   R(19,31)                1.07           estimate D2E/DX2                !
 ! A1    A(2,1,18)             119.3526         estimate D2E/DX2                !
 ! A2    A(1,2,3)              119.5789         estimate D2E/DX2                !
 ! A3    A(1,2,4)              118.7558         estimate D2E/DX2                !
 ! A4    A(3,2,4)              121.6653         estimate D2E/DX2                !
 ! A5    A(2,4,5)              125.054          estimate D2E/DX2                !
 ! A6    A(2,4,20)             117.4114         estimate D2E/DX2                !
 ! A7    A(5,4,20)             117.524          estimate D2E/DX2                !
 ! A8    A(4,5,6)              120.2796         estimate D2E/DX2                !
 ! A9    A(4,5,7)              115.4302         estimate D2E/DX2                !
 ! A10   A(6,5,7)              124.2898         estimate D2E/DX2                !
 ! A11   A(5,7,8)              119.8752         estimate D2E/DX2                !
 ! A12   A(5,7,18)             116.9024         estimate D2E/DX2                !
 ! A13   A(8,7,18)             123.2222         estimate D2E/DX2                !
 ! A14   A(7,8,9)              116.7077         estimate D2E/DX2                !
 ! A15   A(8,9,10)             119.0994         estimate D2E/DX2                !
 ! A16   A(8,9,16)             123.3891         estimate D2E/DX2                !
 ! A17   A(10,9,16)            117.5109         estimate D2E/DX2                !
 ! A18   A(9,10,11)            123.0421         estimate D2E/DX2                !
 ! A19   A(9,10,21)            117.8099         estimate D2E/DX2                !
 ! A20   A(11,10,21)           119.1478         estimate D2E/DX2                !
 ! A21   A(10,11,12)           119.6935         estimate D2E/DX2                !
 ! A22   A(10,11,13)           119.1264         estimate D2E/DX2                !
 ! A23   A(12,11,13)           121.1794         estimate D2E/DX2                !
 ! A24   A(11,12,22)           110.7281         estimate D2E/DX2                !
 ! A25   A(11,12,23)           111.8538         estimate D2E/DX2                !
 ! A26   A(11,12,24)           110.5151         estimate D2E/DX2                !
 ! A27   A(22,12,23)           108.9094         estimate D2E/DX2                !
 ! A28   A(22,12,24)           105.8478         estimate D2E/DX2                !
 ! A29   A(23,12,24)           108.784          estimate D2E/DX2                !
 ! A30   A(11,13,14)           121.073          estimate D2E/DX2                !
 ! A31   A(11,13,15)           118.5106         estimate D2E/DX2                !
 ! A32   A(14,13,15)           120.4163         estimate D2E/DX2                !
 ! A33   A(13,14,25)           111.1743         estimate D2E/DX2                !
 ! A34   A(13,14,26)           110.9737         estimate D2E/DX2                !
 ! A35   A(13,14,27)           111.1098         estimate D2E/DX2                !
 ! A36   A(25,14,26)           108.2865         estimate D2E/DX2                !
 ! A37   A(25,14,27)           106.9252         estimate D2E/DX2                !
 ! A38   A(26,14,27)           108.2141         estimate D2E/DX2                !
 ! A39   A(13,15,16)           122.3777         estimate D2E/DX2                !
 ! A40   A(13,15,28)           118.288          estimate D2E/DX2                !
 ! A41   A(16,15,28)           119.3118         estimate D2E/DX2                !
 ! A42   A(9,16,15)            119.4231         estimate D2E/DX2                !
 ! A43   A(9,16,17)            118.4728         estimate D2E/DX2                !
 ! A44   A(15,16,17)           122.1038         estimate D2E/DX2                !
 ! A45   A(16,17,18)           119.2395         estimate D2E/DX2                !
 ! A46   A(16,17,19)           122.6943         estimate D2E/DX2                !
 ! A47   A(18,17,19)           118.0575         estimate D2E/DX2                !
 ! A48   A(1,18,7)             124.341          estimate D2E/DX2                !
 ! A49   A(1,18,17)            116.8157         estimate D2E/DX2                !
 ! A50   A(7,18,17)            118.8401         estimate D2E/DX2                !
 ! A51   A(17,19,29)           109.4712         estimate D2E/DX2                !
 ! A52   A(17,19,30)           109.4712         estimate D2E/DX2                !
 ! A53   A(17,19,31)           109.4712         estimate D2E/DX2                !
 ! A54   A(29,19,30)           109.4712         estimate D2E/DX2                !
 ! A55   A(29,19,31)           109.4712         estimate D2E/DX2                !
 ! A56   A(30,19,31)           109.4712         estimate D2E/DX2                !
 ! D1    D(18,1,2,3)          -177.6895         estimate D2E/DX2                !
 ! D2    D(18,1,2,4)             2.3154         estimate D2E/DX2                !
 ! D3    D(2,1,18,7)             1.1771         estimate D2E/DX2                !
 ! D4    D(2,1,18,17)         -179.4775         estimate D2E/DX2                !
 ! D5    D(1,2,4,5)             -4.8386         estimate D2E/DX2                !
 ! D6    D(1,2,4,20)           176.382          estimate D2E/DX2                !
 ! D7    D(3,2,4,5)            175.1664         estimate D2E/DX2                !
 ! D8    D(3,2,4,20)            -3.613          estimate D2E/DX2                !
 ! D9    D(2,4,5,6)           -176.7018         estimate D2E/DX2                !
 ! D10   D(2,4,5,7)              3.5046         estimate D2E/DX2                !
 ! D11   D(20,4,5,6)             2.0763         estimate D2E/DX2                !
 ! D12   D(20,4,5,7)          -177.7173         estimate D2E/DX2                !
 ! D13   D(4,5,7,8)           -179.7682         estimate D2E/DX2                !
 ! D14   D(4,5,7,18)             0.0662         estimate D2E/DX2                !
 ! D15   D(6,5,7,8)              0.4476         estimate D2E/DX2                !
 ! D16   D(6,5,7,18)          -179.718          estimate D2E/DX2                !
 ! D17   D(5,7,8,9)            179.0305         estimate D2E/DX2                !
 ! D18   D(18,7,8,9)            -0.793          estimate D2E/DX2                !
 ! D19   D(5,7,18,1)            -2.3638         estimate D2E/DX2                !
 ! D20   D(5,7,18,17)          178.3032         estimate D2E/DX2                !
 ! D21   D(8,7,18,1)           177.4646         estimate D2E/DX2                !
 ! D22   D(8,7,18,17)           -1.8685         estimate D2E/DX2                !
 ! D23   D(7,8,9,10)          -179.0617         estimate D2E/DX2                !
 ! D24   D(7,8,9,16)             1.2249         estimate D2E/DX2                !
 ! D25   D(8,9,10,11)          179.5857         estimate D2E/DX2                !
 ! D26   D(8,9,10,21)           -0.5628         estimate D2E/DX2                !
 ! D27   D(16,9,10,11)          -0.6841         estimate D2E/DX2                !
 ! D28   D(16,9,10,21)         179.1674         estimate D2E/DX2                !
 ! D29   D(8,9,16,15)         -179.1456         estimate D2E/DX2                !
 ! D30   D(8,9,16,17)            1.0355         estimate D2E/DX2                !
 ! D31   D(10,9,16,15)           1.1367         estimate D2E/DX2                !
 ! D32   D(10,9,16,17)        -178.6822         estimate D2E/DX2                !
 ! D33   D(9,10,11,12)        -179.7794         estimate D2E/DX2                !
 ! D34   D(9,10,11,13)          -0.0843         estimate D2E/DX2                !
 ! D35   D(21,10,11,12)          0.371          estimate D2E/DX2                !
 ! D36   D(21,10,11,13)       -179.934          estimate D2E/DX2                !
 ! D37   D(10,11,12,22)       -123.143          estimate D2E/DX2                !
 ! D38   D(10,11,12,23)         -1.4678         estimate D2E/DX2                !
 ! D39   D(10,11,12,24)        119.8977         estimate D2E/DX2                !
 ! D40   D(13,11,12,22)         57.1683         estimate D2E/DX2                !
 ! D41   D(13,11,12,23)        178.8435         estimate D2E/DX2                !
 ! D42   D(13,11,12,24)        -59.7909         estimate D2E/DX2                !
 ! D43   D(10,11,13,14)       -179.445          estimate D2E/DX2                !
 ! D44   D(10,11,13,15)          0.3903         estimate D2E/DX2                !
 ! D45   D(12,11,13,14)          0.2454         estimate D2E/DX2                !
 ! D46   D(12,11,13,15)       -179.9194         estimate D2E/DX2                !
 ! D47   D(11,13,14,25)         58.6415         estimate D2E/DX2                !
 ! D48   D(11,13,14,26)        179.2288         estimate D2E/DX2                !
 ! D49   D(11,13,14,27)        -60.3189         estimate D2E/DX2                !
 ! D50   D(15,13,14,25)       -121.1906         estimate D2E/DX2                !
 ! D51   D(15,13,14,26)         -0.6033         estimate D2E/DX2                !
 ! D52   D(15,13,14,27)        119.849          estimate D2E/DX2                !
 ! D53   D(11,13,15,16)          0.0897         estimate D2E/DX2                !
 ! D54   D(11,13,15,28)       -178.1712         estimate D2E/DX2                !
 ! D55   D(14,13,15,16)        179.9261         estimate D2E/DX2                !
 ! D56   D(14,13,15,28)          1.6652         estimate D2E/DX2                !
 ! D57   D(13,15,16,9)          -0.8742         estimate D2E/DX2                !
 ! D58   D(13,15,16,17)        178.9379         estimate D2E/DX2                !
 ! D59   D(28,15,16,9)         177.3695         estimate D2E/DX2                !
 ! D60   D(28,15,16,17)         -2.8184         estimate D2E/DX2                !
 ! D61   D(9,16,17,18)          -3.7126         estimate D2E/DX2                !
 ! D62   D(9,16,17,19)         177.3772         estimate D2E/DX2                !
 ! D63   D(15,16,17,18)        176.4736         estimate D2E/DX2                !
 ! D64   D(15,16,17,19)         -2.4365         estimate D2E/DX2                !
 ! D65   D(16,17,18,1)        -175.2592         estimate D2E/DX2                !
 ! D66   D(16,17,18,7)           4.1238         estimate D2E/DX2                !
 ! D67   D(19,17,18,1)           3.7015         estimate D2E/DX2                !
 ! D68   D(19,17,18,7)        -176.9155         estimate D2E/DX2                !
 ! D69   D(16,17,19,29)        -26.5764         estimate D2E/DX2                !
 ! D70   D(16,17,19,30)       -146.5764         estimate D2E/DX2                !
 ! D71   D(16,17,19,31)         93.4236         estimate D2E/DX2                !
 ! D72   D(18,17,19,29)        154.5013         estimate D2E/DX2                !
 ! D73   D(18,17,19,30)         34.5013         estimate D2E/DX2                !
 ! D74   D(18,17,19,31)        -85.4987         estimate D2E/DX2                !
 --------------------------------------------------------------------------------
 Trust Radius=3.00D-01 FncErr=1.00D-07 GrdErr=1.00D-06 EigMax=2.50D+02 EigMin=1.00D-04
 Number of steps in this run=    173 maximum allowed number of steps=    186.
 GradGradGradGradGradGradGradGradGradGradGradGradGradGradGradGradGradGrad

 Leave Link  103 at Mon Aug  1 12:52:59 2022, MaxMem=  1073741824 cpu:               0.2 elap:               0.0
 (Enter /afs/ics.muni.cz/software/g16-C.01/avx2/g16/l202.exe)
                          Input orientation:                          
 ---------------------------------------------------------------------
 Center     Atomic      Atomic             Coordinates (Angstroms)
 Number     Number       Type             X           Y           Z
 ---------------------------------------------------------------------
      1          7           0        0.149406    0.706533   -0.388963
      2          6           0       -0.232814    2.033092   -0.368467
      3          8           0       -1.432619    2.321093   -0.349101
      4          7           0        0.736213    2.996516   -0.370334
      5          6           0        2.096625    2.755451   -0.295854
      6          8           0        2.896366    3.699996   -0.242941
      7          6           0        2.480978    1.360942   -0.290673
      8          7           0        3.777217    1.025619   -0.216257
      9          6           0        4.065569   -0.308362   -0.195451
     10          6           0        5.389996   -0.711086   -0.099326
     11          6           0        5.782281   -2.069528   -0.062379
     12          6           0        7.223520   -2.417101    0.046589
     13          6           0        4.792859   -3.071084   -0.123466
     14          6           0        5.158571   -4.523590   -0.075209
     15          6           0        3.466390   -2.684823   -0.226209
     16          6           0        3.073953   -1.324701   -0.273505
     17          7           0        1.756588   -0.947659   -0.397117
     18          6           0        1.430924    0.403405   -0.363306
     19          6           0        0.667251   -1.915210   -0.541197
     20          1           0        0.426594    3.984443   -0.412789
     21          1           0        6.149276    0.057998   -0.053543
     22          1           0        7.531706   -3.056554   -0.786081
     23          1           0        7.853302   -1.531280    0.062307
     24          1           0        7.410331   -2.998639    0.955203
     25          1           0        5.701467   -4.763553    0.841910
     26          1           0        4.270436   -5.150516   -0.120161
     27          1           0        5.809699   -4.793408   -0.910154
     28          1           0        2.711269   -3.452195   -0.242451
     29          1           0        1.043840   -2.812720   -0.985671
     30          1           0       -0.096992   -1.501519   -1.165451
     31          1           0        0.258787   -2.138504    0.422233
 ---------------------------------------------------------------------
                    Distance matrix (angstroms):
                    1          2          3          4          5
     1  N    0.000000
     2  C    1.380678   0.000000
     3  O    2.260795   1.234039   0.000000
     4  N    2.364046   1.366456   2.271669   0.000000
     5  C    2.828144   2.439951   3.556271   1.383611   0.000000
     6  O    4.065456   3.547688   4.544530   2.275384   1.238770
     7  C    2.423663   2.796874   4.030080   2.392834   1.446516
     8  N    3.645909   4.137453   5.370130   3.627104   2.413098
     9  C    4.050159   4.897799   6.096533   4.694402   3.643319
    10  C    5.436664   6.262503   7.470246   5.956295   4.785582
    11  C    6.288279   7.287424   8.450713   7.156985   6.076100
    12  C    7.745314   8.693297   9.876021   8.459682   7.290927
    13  C    5.991872   7.167289   8.239118   7.302951   6.422453
    14  C    7.248749   8.493710   9.506234   8.729052   7.899914
    15  C    4.746595   5.996922   7.005326   6.304939   5.610498
    16  C    3.562614   4.713650   5.797130   4.913992   4.195630
    17  N    2.306394   3.583771   4.567065   4.074113   3.720068
    18  C    1.317131   2.328933   3.446391   2.684567   2.445369
    19  C    2.676728   4.053275   4.732084   4.915181   4.890642
    20  H    3.289695   2.060232   2.495488   1.036179   2.076800
    21  H    6.044133   6.688142   7.917960   6.167373   4.874315
    22  H    8.295594   9.293367  10.462751   9.109952   7.972442
    23  H    8.035015   8.847349  10.061728   8.446364   7.186353
    24  H    8.261726   9.245977  10.401852   9.068781   7.931593
    25  H    7.890644   9.103575  10.124520   9.292037   8.415748
    26  H    7.166601   8.482048   9.402244   8.884112   8.201258
    27  H    7.909482   9.132715  10.167698   9.312066   8.435020
    28  H    4.886678   6.226707   7.107323   6.745597   6.238230
    29  H    3.679839   5.049027   5.735338   5.849828   5.708654
    30  H    2.353537   3.625894   4.130701   4.643141   4.867232
    31  H    2.960446   4.274236   4.831544   5.217713   5.276751
                    6          7          8          9         10
     6  O    0.000000
     7  C    2.376131   0.000000
     8  N    2.815831   1.340975   0.000000
     9  C    4.175671   2.303600   1.364949   0.000000
    10  C    5.069168   3.576632   2.372946   1.387636   0.000000
    11  C    6.453566   4.766429   3.691056   2.463029   1.414432
    12  C    7.498464   6.072813   4.878362   3.804999   2.508703
    13  C    7.032673   5.001560   4.221743   2.857755   2.434491
    14  C    8.530713   6.468666   5.720293   4.356290   3.819598
    15  C    6.410236   4.164542   3.723452   2.451026   2.758985
    16  C    5.027927   2.750380   2.453948   1.422090   2.402273
    17  N    4.787856   2.421923   2.830102   2.404322   3.653259
    18  C    3.609643   1.422943   2.431844   2.734253   4.121411
    19  C    6.048839   3.753071   4.292546   3.774926   4.893821
    20  H    2.491893   3.334391   4.474365   5.631834   6.839708
    21  H    4.886864   3.900039   2.566989   2.120423   1.081708
    22  H    8.211720   6.728265   5.575394   4.462680   3.249581
    23  H    7.213227   6.111580   4.819730   3.988595   2.601292
    24  H    8.165975   6.697513   5.546755   4.443988   3.229038
    25  H    8.982046   7.011685   6.191685   4.858087   4.171981
    26  H    8.957383   6.755022   6.196543   4.847071   4.578470
    27  H    9.003921   7.024255   6.202705   4.865021   4.183174
    28  H    7.154586   4.818884   4.603015   3.423452   3.835328
    29  H    6.811678   4.468539   4.774535   4.003386   4.908313
    30  H    6.071818   3.950297   4.721958   4.437503   5.645214
    31  H    6.441069   4.206245   4.774798   4.268787   5.351528
                   11         12         13         14         15
    11  C    0.000000
    12  C    1.486557   0.000000
    13  C    1.409185   2.522841   0.000000
    14  C    2.532114   2.952312   1.498615   0.000000
    15  C    2.401828   3.776522   1.385379   2.503466   0.000000
    16  C    2.816804   4.302872   2.454996   3.823329   1.416395
    17  N    4.192475   5.678334   3.715207   4.946150   2.443434
    18  C    5.014007   6.455806   4.840682   6.184952   3.701225
    19  C    5.139709   6.601670   4.304786   5.214666   2.920051
    20  H    8.090534   9.348208   8.302315   9.741262   7.331731
    21  H    2.158965   2.700026   3.411145   4.687528   3.840672
    22  H    2.135053   1.094175   2.817899   2.879115   4.120490
    23  H    2.143452   1.086992   3.431008   4.029194   4.545206
    24  H    2.132901   1.094835   2.831949   2.908203   4.129030
    25  H    2.842893   2.907751   2.149877   1.092440   3.233816
    26  H    3.432419   4.027415   2.144056   1.088044   2.595646
    27  H    2.852893   2.925933   2.149242   1.092658   3.225680
    28  H    3.372730   4.638467   2.119533   2.676779   1.076722
    29  H    4.884426   6.277779   3.855553   4.548299   2.542024
    30  H    6.008764   7.476445   5.240220   6.159747   3.870410
    31  H    5.545142   6.980418   4.661041   5.472108   3.317779
                   16         17         18         19         20
    16  C    0.000000
    17  N    1.375824   0.000000
    18  C    2.386202   1.390171   0.000000
    19  C    2.492504   1.464093   2.447615   0.000000
    20  H    5.934216   5.108303   3.719538   5.905955   0.000000
    21  H    3.379031   4.519413   4.741108   5.846705   6.949469
    22  H    4.809741   6.160415   7.026350   6.963001  10.009875
    23  H    4.795584   6.141792   6.720944   7.221561   9.263094
    24  H    4.807907   6.164422   7.004690   6.991578   9.970327
    25  H    4.469193   5.626571   6.810840   5.947216  10.292035
    26  H    4.011477   4.905114   6.242434   4.860804   9.915051
    27  H    4.463357   5.610767   6.817593   5.904653  10.309018
    28  H    2.158410   2.684779   4.064424   2.574797   7.781538
    29  H    2.615862   2.081551   3.298580   1.070000   6.849132
    30  H    3.298746   2.081551   2.570350   1.070000   5.562052
    31  H    3.011891   2.081551   2.907281   1.070000   6.181902
                   21         22         23         24         25
    21  H    0.000000
    22  H    3.485421   0.000000
    23  H    2.333009   1.774724   0.000000
    24  H    3.457001   1.746470   1.773874   0.000000
    25  H    4.924401   2.985628   3.960526   2.459263   0.000000
    26  H    5.537427   3.932430   5.095988   3.955493   1.767249
    27  H    4.938141   2.448952   3.970324   3.043481   1.755658
    28  H    4.917015   4.867102   5.497572   4.870449   3.440463
    29  H    5.930881   6.495513   7.007789   6.658360   5.370222
    30  H    6.533322   7.794811   8.044591   7.943452   6.949280
    31  H    6.304669   7.429549   7.627249   7.222775   6.057209
                   26         27         28         29         30
    26  H    0.000000
    27  H    1.766620   0.000000
    28  H    2.308734   3.441649   0.000000
    29  H    4.077415   5.161612   1.934327   0.000000
    30  H    5.786384   6.766883   3.541665   1.747303   0.000000
    31  H    5.045764   6.295744   2.860464   1.747303   1.747303
                   31
    31  H    0.000000
 Stoichiometry    C13H12N4O2
 Framework group  C1[X(C13H12N4O2)]
 Deg. of freedom    87
 Full point group                 C1      NOp   1
 Largest Abelian subgroup         C1      NOp   1
 Largest concise Abelian subgroup C1      NOp   1
                         Standard orientation:                         
 ---------------------------------------------------------------------
 Center     Atomic      Atomic             Coordinates (Angstroms)
 Number     Number       Type             X           Y           Z
 ---------------------------------------------------------------------
      1          7           0       -2.524843   -1.275252    0.028599
      2          6           0       -3.740486   -0.621501    0.061652
      3          8           0       -4.782062   -1.276577    0.155702
      4          7           0       -3.755328    0.742920   -0.011414
      5          6           0       -2.631840    1.550403   -0.022595
      6          8           0       -2.749015    2.783597   -0.029915
      7          6           0       -1.365056    0.852107   -0.029546
      8          7           0       -0.218779    1.547970   -0.035799
      9          6           0        0.938360    0.824154   -0.021520
     10          6           0        2.153388    1.494258   -0.007315
     11          6           0        3.401091    0.828463    0.016593
     12          6           0        4.658511    1.621170    0.035584
     13          6           0        3.426608   -0.580441    0.028500
     14          6           0        4.723599   -1.330265    0.066261
     15          6           0        2.221694   -1.263839    0.007972
     16          6           0        0.972283   -0.597524   -0.026269
     17          7           0       -0.220488   -1.281947   -0.068124
     18          6           0       -1.413760   -0.569997   -0.025652
     19          6           0       -0.292144   -2.742851   -0.132903
     20          1           0       -4.680274    1.208922   -0.042786
     21          1           0        2.133411    2.575733   -0.017550
     22          1           0        5.299187    1.351386   -0.809383
     23          1           0        4.463531    2.690024    0.002636
     24          1           0        5.240168    1.396495    0.935506
     25          1           0        5.309074   -1.061767    0.948618
     26          1           0        4.552004   -2.404541    0.084341
     27          1           0        5.338422   -1.097250   -0.806436
     28          1           0        2.244480   -2.339598    0.047401
     29          1           0        0.595964   -3.123475   -0.592564
     30          1           0       -1.145009   -3.032860   -0.710324
     31          1           0       -0.379755   -3.139885    0.856839
 ---------------------------------------------------------------------
 Rotational constants (GHZ):           0.8956090           0.2289067           0.1830488
 Leave Link  202 at Mon Aug  1 12:52:59 2022, MaxMem=  1073741824 cpu:               0.1 elap:               0.0
 (Enter /afs/ics.muni.cz/software/g16-C.01/avx2/g16/l301.exe)
 Standard basis: CC-pVDZ (5D, 7F)
 Ernie: Thresh=  0.10000D-02 Tol=  0.10000D-05 Strict=F.
 Ernie:  38 primitive shells out of 478 were deleted.
 There are   345 symmetry adapted cartesian basis functions of A   symmetry.
 There are   326 symmetry adapted basis functions of A   symmetry.
   326 basis functions,   711 primitive gaussians,   345 cartesian basis functions
    67 alpha electrons       67 beta electrons
       nuclear repulsion energy      1379.1206367143 Hartrees.
 IExCor=  404 DFT=T Ex=B Corr=P86 ExCW=0 ScaHFX=  0.000000
 ScaDFX=  1.000000  1.000000  1.000000  1.000000 ScalE2=  1.000000  1.000000
 IRadAn=      5 IRanWt=     -1 IRanGd=            0 ICorTp=0 IEmpDi=141
 NAtoms=   31 NActive=   31 NUniq=   31 SFac= 1.00D+00 NAtFMM=   60 NAOKFM=F Big=F
 Integral buffers will be    131072 words long.
 Raffenetti 2 integral format.
 Two-electron integral symmetry is turned on.
 R6Disp:  Grimme-D3(BJ) Dispersion energy=       -0.0644281746 Hartrees.
 Nuclear repulsion after empirical dispersion term =     1379.0562085396 Hartrees.
 ------------------------------------------------------------------------------
 Polarizable Continuum Model (PCM)
 =================================
 Model                : PCM.
 Atomic radii         : UFF (Universal Force Field).
 Polarization charges : Total charges.
 Charge compensation  : None.
 Solution method      : On-the-fly selection.
 Cavity type          : Scaled VdW (van der Waals Surface) (Alpha=1.100).
 Cavity algorithm     : GePol (No added spheres)
                        Default sphere list used, NSphG=   31.
                        Lebedev-Laikov grids with approx.  5.0 points / Ang**2.
                        Smoothing algorithm: York/Karplus (Gamma=1.0000).
                        Polarization charges: spherical gaussians, with
                                              point-specific exponents (IZeta= 3).
                        Self-potential: point-specific (ISelfS= 7).
                        Self-field    : sphere-specific E.n sum rule (ISelfD= 2).
 1st derivatives      : Analytical E(r).r(x)/FMM algorithm (CHGder, D1EAlg=3).
                        Cavity 1st derivative terms included.
 Solvent              : Water, Eps=  78.355300 Eps(inf)=   1.777849
 ------------------------------------------------------------------------------
 GePol: Number of generator spheres                  =      31
 GePol: Total number of spheres                      =      31
 GePol: Number of exposed spheres                    =      31 (100.00%)
 GePol: Number of points                             =    2380
 GePol: Average weight of points                     =       0.13
 GePol: Minimum weight of points                     =   0.71D-11
 GePol: Maximum weight of points                     =    0.20577
 GePol: Number of points with low weight             =     119
 GePol: Fraction of low-weight points (<1% of avg)   =       5.00%
 GePol: Cavity surface area                          =    307.426 Ang**2
 GePol: Cavity volume                                =    333.870 Ang**3
 Leave Link  301 at Mon Aug  1 12:52:59 2022, MaxMem=  1073741824 cpu:               0.8 elap:               0.1
 (Enter /afs/ics.muni.cz/software/g16-C.01/avx2/g16/l302.exe)
 NPDir=0 NMtPBC=     1 NCelOv=     1 NCel=       1 NClECP=     1 NCelD=      1
         NCelK=      1 NCelE2=     1 NClLst=     1 CellRange=     0.0.
 One-electron integrals computed using PRISM.
 One-electron integral symmetry used in STVInt
 NBasis=   326 RedAO= T EigKep=  2.04D-04  NBF=   326
 NBsUse=   326 1.00D-06 EigRej= -1.00D+00 NBFU=   326
 Precomputing XC quadrature grid using
 IXCGrd= 4 IRadAn=           5 IRanWt=          -1 IRanGd=           0 AccXCQ= 0.00D+00.
 Generated NRdTot=       0 NPtTot=           0 NUsed=           0 NTot=          32
 NSgBfM=   343   343   343   343   343 MxSgAt=    31 MxSgA2=    31.
 Leave Link  302 at Mon Aug  1 12:53:00 2022, MaxMem=  1073741824 cpu:               3.3 elap:               0.4
 (Enter /afs/ics.muni.cz/software/g16-C.01/avx2/g16/l303.exe)
 DipDrv:  MaxL=1.
 Leave Link  303 at Mon Aug  1 12:53:00 2022, MaxMem=  1073741824 cpu:               0.5 elap:               0.1
 (Enter /afs/ics.muni.cz/software/g16-C.01/avx2/g16/l401.exe)
 ExpMin= 1.22D-01 ExpMax= 1.17D+04 ExpMxC= 4.01D+02 IAcc=3 IRadAn=         5 AccDes= 0.00D+00
 Harris functional with IExCor=  404 and IRadAn=       5 diagonalized for initial guess.
 HarFok:  IExCor=  404 AccDes= 0.00D+00 IRadAn=         5 IDoV= 1 UseB2=F ITyADJ=14
 ICtDFT=  3500011 ScaDFX=  1.000000  1.000000  1.000000  1.000000
 FoFCou: FMM=F IPFlag=           0 FMFlag=      100000 FMFlg1=           0
         NFxFlg=           0 DoJE=T BraDBF=F KetDBF=T FulRan=T
         wScrn=  0.000000 ICntrl=       500 IOpCl=  0 I1Cent=   200000004 NGrid=           0
         NMat0=    1 NMatS0=      1 NMatT0=    0 NMatD0=    1 NMtDS0=    0 NMtDT0=    0
 Petite list used in FoFCou.
 Harris En= -872.446565842141    
 JPrj=0 DoOrth=F DoCkMO=F.
 Leave Link  401 at Mon Aug  1 12:53:02 2022, MaxMem=  1073741824 cpu:              14.3 elap:               1.8
 (Enter /afs/ics.muni.cz/software/g16-C.01/avx2/g16/l502.exe)
 Integral symmetry usage will be decided dynamically.
 Closed shell SCF:
 Using DIIS extrapolation, IDIIS=  1040.
 NGot=  1073741824 LenX=  1073496628 LenY=  1073377162
 Requested convergence on RMS density matrix=1.00D-08 within 500 cycles.
 Requested convergence on MAX density matrix=1.00D-06.
 Requested convergence on             energy=1.00D-06.
 No special actions if energy rises.
 Fock matrices will be formed incrementally for  20 cycles.

 Cycle   1  Pass 1  IDiag  1:
 FoFJK:  IHMeth= 1 ICntrl=     500 DoSepK=F KAlg= 0 I1Cent=           0 FoldK=F
 IRaf= 840000000 NMat=       1 IRICut=       1 DoRegI=T DoRafI=F ISym2E= 0 IDoP0=0 IntGTp=1.
 FoFCou: FMM=F IPFlag=           0 FMFlag=      100000 FMFlg1=           0
         NFxFlg=           0 DoJE=T BraDBF=F KetDBF=F FulRan=T
         wScrn=  0.000000 ICntrl=       500 IOpCl=  0 I1Cent=           0 NGrid=           0
         NMat0=    1 NMatS0=      1 NMatT0=    0 NMatD0=    1 NMtDS0=    0 NMtDT0=    0
 Symmetry not used in FoFCou.
 Inv3:  Mode=1 IEnd=    16993200.
 Iteration    1 A*A^-1 deviation from unit magnitude is 3.77D-15 for    735.
 Iteration    1 A*A^-1 deviation from orthogonality  is 2.85D-15 for   2024   1648.
 Iteration    1 A^-1*A deviation from unit magnitude is 3.66D-15 for    735.
 Iteration    1 A^-1*A deviation from orthogonality  is 1.44D-15 for   2282   1517.
 E= -871.849995984981    
 DIIS: error= 3.83D-02 at cycle   1 NSaved=   1.
 NSaved= 1 IEnMin= 1 EnMin= -871.849995984981     IErMin= 1 ErrMin= 3.83D-02
 ErrMax= 3.83D-02  0.00D+00 EMaxC= 1.00D-01 BMatC= 4.29D-01 BMatP= 4.29D-01
 IDIUse=3 WtCom= 6.17D-01 WtEn= 3.83D-01
 Coeff-Com:  0.100D+01
 Coeff-En:   0.100D+01
 Coeff:      0.100D+01
 Gap=     0.051 Goal=   None    Shift=    0.000
 GapD=    0.051 DampG=0.500 DampE=0.500 DampFc=0.2500 IDamp=-1.
 Damping current iteration by 2.50D-01
 RMSDP=7.42D-03 MaxDP=3.95D-01              OVMax= 8.09D-01

 Cycle   2  Pass 1  IDiag  1:
 RMSU=  1.85D-03    CP:  9.91D-01
 E= -871.885508656238     Delta-E=       -0.035512671257 Rises=F Damp=T
 DIIS: error= 1.59D-02 at cycle   2 NSaved=   2.
 NSaved= 2 IEnMin= 2 EnMin= -871.885508656238     IErMin= 2 ErrMin= 1.59D-02
 ErrMax= 1.59D-02  0.00D+00 EMaxC= 1.00D-01 BMatC= 7.23D-02 BMatP= 4.29D-01
 IDIUse=3 WtCom= 8.41D-01 WtEn= 1.59D-01
 Coeff-Com:  0.377D-02 0.996D+00
 Coeff-En:   0.439D+00 0.561D+00
 Coeff:      0.731D-01 0.927D+00
 Gap=    -0.192 Goal=   None    Shift=    0.000
 RMSDP=2.85D-03 MaxDP=1.01D-01 DE=-3.55D-02 OVMax= 7.03D-01

 Cycle   3  Pass 1  IDiag  1:
 RMSU=  2.84D-03    CP:  9.83D-01  9.78D-01
 E= -871.946445799352     Delta-E=       -0.060937143114 Rises=F Damp=F
 DIIS: error= 3.29D-02 at cycle   3 NSaved=   3.
 NSaved= 3 IEnMin= 3 EnMin= -871.946445799352     IErMin= 2 ErrMin= 1.59D-02
 ErrMax= 3.29D-02  0.00D+00 EMaxC= 1.00D-01 BMatC= 2.93D-01 BMatP= 7.23D-02
 IDIUse=2 WtCom= 0.00D+00 WtEn= 1.00D+00
 EnCoef did     3 forward-backward iterations
 Coeff-En:   0.132D+00 0.353D+00 0.515D+00
 Coeff:      0.132D+00 0.353D+00 0.515D+00
 Gap=     0.142 Goal=   None    Shift=    0.000
 RMSDP=4.61D-03 MaxDP=3.34D-01 DE=-6.09D-02 OVMax= 8.53D-01

 Cycle   4  Pass 1  IDiag  1:
 RMSU=  2.22D-03    CP:  9.71D-01  2.17D+00 -1.92D-01
 E= -870.443361372624     Delta-E=        1.503084426729 Rises=F Damp=F
 DIIS: error= 8.45D-02 at cycle   4 NSaved=   4.
 NSaved= 4 IEnMin= 3 EnMin= -871.946445799352     IErMin= 2 ErrMin= 1.59D-02
 ErrMax= 8.45D-02  0.00D+00 EMaxC= 1.00D-01 BMatC= 1.18D+00 BMatP= 7.23D-02
 IDIUse=2 WtCom= 0.00D+00 WtEn= 1.00D+00
 EnCoef did     2 forward-backward iterations
 Coeff-En:   0.212D+00 0.000D+00 0.597D+00 0.192D+00
 Coeff:      0.212D+00 0.000D+00 0.597D+00 0.192D+00
 Gap=    -0.053 Goal=   None    Shift=    0.000
 RMSDP=3.87D-03 MaxDP=2.64D-01 DE= 1.50D+00 OVMax= 8.55D-01

 Cycle   5  Pass 1  IDiag  1:
 RMSU=  1.91D-03    CP:  9.90D-01  1.12D+00  3.13D-01 -5.04D-02
 E= -872.177044866467     Delta-E=       -1.733683493844 Rises=F Damp=F
 DIIS: error= 2.44D-02 at cycle   5 NSaved=   5.
 NSaved= 5 IEnMin= 5 EnMin= -872.177044866467     IErMin= 2 ErrMin= 1.59D-02
 ErrMax= 2.44D-02  0.00D+00 EMaxC= 1.00D-01 BMatC= 8.98D-02 BMatP= 7.23D-02
 IDIUse=2 WtCom= 0.00D+00 WtEn= 1.00D+00
 Coeff-En:   0.000D+00 0.000D+00 0.214D+00 0.000D+00 0.786D+00
 Coeff:      0.000D+00 0.000D+00 0.214D+00 0.000D+00 0.786D+00
 Gap=     0.155 Goal=   None    Shift=    0.000
 RMSDP=2.36D-03 MaxDP=1.96D-01 DE=-1.73D+00 OVMax= 2.44D-01

 Cycle   6  Pass 1  IDiag  1:
 RMSU=  1.51D-03    CP:  9.86D-01  4.92D-01  4.26D-01  9.04D-02  3.07D-01
 E= -872.045114333238     Delta-E=        0.131930533230 Rises=F Damp=F
 DIIS: error= 4.25D-02 at cycle   6 NSaved=   6.
 NSaved= 6 IEnMin= 5 EnMin= -872.177044866467     IErMin= 2 ErrMin= 1.59D-02
 ErrMax= 4.25D-02  0.00D+00 EMaxC= 1.00D-01 BMatC= 2.49D-01 BMatP= 7.23D-02
 IDIUse=2 WtCom= 0.00D+00 WtEn= 1.00D+00
 EnCoef did     4 forward-backward iterations
 Coeff-En:   0.000D+00 0.000D+00 0.239D-01 0.000D+00 0.663D+00 0.313D+00
 Coeff:      0.000D+00 0.000D+00 0.239D-01 0.000D+00 0.663D+00 0.313D+00
 Gap=     0.076 Goal=   None    Shift=    0.000
 RMSDP=1.45D-03 MaxDP=1.15D-01 DE= 1.32D-01 OVMax= 1.75D-01

 Cycle   7  Pass 1  IDiag  1:
 RMSU=  2.86D-04    CP:  9.88D-01  8.49D-01  5.76D-01 -1.03D-03  4.45D-01
                    CP:  2.48D-01
 E= -872.221295875055     Delta-E=       -0.176181541817 Rises=F Damp=F
 DIIS: error= 1.26D-02 at cycle   7 NSaved=   7.
 NSaved= 7 IEnMin= 7 EnMin= -872.221295875055     IErMin= 7 ErrMin= 1.26D-02
 ErrMax= 1.26D-02  0.00D+00 EMaxC= 1.00D-01 BMatC= 3.74D-02 BMatP= 7.23D-02
 IDIUse=3 WtCom= 8.74D-01 WtEn= 1.26D-01
 Coeff-Com: -0.271D-01 0.146D-01-0.288D-01 0.693D-02 0.397D+00 0.170D+00
 Coeff-Com:  0.467D+00
 Coeff-En:   0.000D+00 0.000D+00 0.000D+00 0.000D+00 0.343D+00 0.000D+00
 Coeff-En:   0.657D+00
 Coeff:     -0.237D-01 0.128D-01-0.252D-01 0.606D-02 0.391D+00 0.148D+00
 Coeff:      0.491D+00
 Gap=     0.067 Goal=   None    Shift=    0.000
 RMSDP=7.32D-04 MaxDP=5.14D-02 DE=-1.76D-01 OVMax= 8.85D-02

 Cycle   8  Pass 1  IDiag  1:
 RMSU=  2.04D-04    CP:  9.88D-01  8.63D-01  4.19D-01  3.18D-03  6.98D-01
                    CP:  3.72D-01  4.36D-01
 E= -872.254602185483     Delta-E=       -0.033306310428 Rises=F Damp=F
 DIIS: error= 3.89D-03 at cycle   8 NSaved=   8.
 NSaved= 8 IEnMin= 8 EnMin= -872.254602185483     IErMin= 8 ErrMin= 3.89D-03
 ErrMax= 3.89D-03  0.00D+00 EMaxC= 1.00D-01 BMatC= 3.12D-03 BMatP= 3.74D-02
 IDIUse=3 WtCom= 9.61D-01 WtEn= 3.89D-02
 Coeff-Com: -0.331D-01 0.359D-01-0.699D-01-0.161D-02 0.146D+00 0.270D-01
 Coeff-Com:  0.421D+00 0.475D+00
 Coeff-En:   0.000D+00 0.000D+00 0.000D+00 0.000D+00 0.000D+00 0.000D+00
 Coeff-En:   0.000D+00 0.100D+01
 Coeff:     -0.318D-01 0.345D-01-0.672D-01-0.155D-02 0.140D+00 0.260D-01
 Coeff:      0.404D+00 0.495D+00
 Gap=     0.067 Goal=   None    Shift=    0.000
 RMSDP=2.11D-04 MaxDP=1.14D-02 DE=-3.33D-02 OVMax= 2.18D-02

 Cycle   9  Pass 1  IDiag  1:
 RMSU=  7.38D-05    CP:  9.89D-01  9.04D-01  4.41D-01 -9.13D-03  6.93D-01
                    CP:  3.09D-01  6.49D-01  3.80D-01
 E= -872.257063751536     Delta-E=       -0.002461566053 Rises=F Damp=F
 DIIS: error= 1.01D-03 at cycle   9 NSaved=   9.
 NSaved= 9 IEnMin= 9 EnMin= -872.257063751536     IErMin= 9 ErrMin= 1.01D-03
 ErrMax= 1.01D-03  0.00D+00 EMaxC= 1.00D-01 BMatC= 3.96D-04 BMatP= 3.12D-03
 IDIUse=3 WtCom= 9.90D-01 WtEn= 1.01D-02
 Coeff-Com: -0.188D-01 0.188D-01-0.452D-01-0.460D-03 0.562D-01 0.167D-03
 Coeff-Com:  0.221D+00 0.351D+00 0.417D+00
 Coeff-En:   0.000D+00 0.000D+00 0.000D+00 0.000D+00 0.000D+00 0.000D+00
 Coeff-En:   0.000D+00 0.125D+00 0.875D+00
 Coeff:     -0.186D-01 0.187D-01-0.447D-01-0.455D-03 0.557D-01 0.165D-03
 Coeff:      0.219D+00 0.349D+00 0.421D+00
 Gap=     0.067 Goal=   None    Shift=    0.000
 RMSDP=5.29D-05 MaxDP=2.58D-03 DE=-2.46D-03 OVMax= 5.22D-03

 Cycle  10  Pass 1  IDiag  1:
 RMSU=  2.04D-05    CP:  9.89D-01  9.00D-01  4.36D-01 -8.45D-03  6.97D-01
                    CP:  3.14D-01  6.40D-01  5.12D-01  5.04D-01
 E= -872.257392361414     Delta-E=       -0.000328609877 Rises=F Damp=F
 DIIS: error= 2.36D-04 at cycle  10 NSaved=  10.
 NSaved=10 IEnMin=10 EnMin= -872.257392361414     IErMin=10 ErrMin= 2.36D-04
 ErrMax= 2.36D-04  0.00D+00 EMaxC= 1.00D-01 BMatC= 2.46D-05 BMatP= 3.96D-04
 IDIUse=3 WtCom= 9.98D-01 WtEn= 2.36D-03
 Coeff-Com: -0.763D-02 0.978D-02-0.118D-01-0.419D-03 0.131D-01-0.789D-03
 Coeff-Com:  0.477D-01 0.127D+00 0.206D+00 0.617D+00
 Coeff-En:   0.000D+00 0.000D+00 0.000D+00 0.000D+00 0.000D+00 0.000D+00
 Coeff-En:   0.000D+00 0.000D+00 0.000D+00 0.100D+01
 Coeff:     -0.761D-02 0.976D-02-0.118D-01-0.418D-03 0.131D-01-0.787D-03
 Coeff:      0.476D-01 0.127D+00 0.206D+00 0.618D+00
 Gap=     0.067 Goal=   None    Shift=    0.000
 RMSDP=1.76D-05 MaxDP=7.30D-04 DE=-3.29D-04 OVMax= 2.82D-03

 Cycle  11  Pass 1  IDiag  1:
 RMSU=  9.58D-06    CP:  9.89D-01  9.01D-01  4.34D-01 -8.24D-03  7.01D-01
                    CP:  3.16D-01  6.30D-01  5.24D-01  5.70D-01  6.39D-01
 E= -872.257411141682     Delta-E=       -0.000018780269 Rises=F Damp=F
 DIIS: error= 1.04D-04 at cycle  11 NSaved=  11.
 NSaved=11 IEnMin=11 EnMin= -872.257411141682     IErMin=11 ErrMin= 1.04D-04
 ErrMax= 1.04D-04  0.00D+00 EMaxC= 1.00D-01 BMatC= 5.92D-06 BMatP= 2.46D-05
 IDIUse=3 WtCom= 9.99D-01 WtEn= 1.04D-03
 Coeff-Com: -0.363D-02 0.579D-02-0.220D-02-0.341D-03 0.227D-02-0.128D-03
 Coeff-Com:  0.234D-02 0.461D-01 0.920D-01 0.442D+00 0.416D+00
 Coeff-En:   0.000D+00 0.000D+00 0.000D+00 0.000D+00 0.000D+00 0.000D+00
 Coeff-En:   0.000D+00 0.000D+00 0.000D+00 0.000D+00 0.100D+01
 Coeff:     -0.363D-02 0.578D-02-0.220D-02-0.341D-03 0.227D-02-0.128D-03
 Coeff:      0.234D-02 0.461D-01 0.919D-01 0.441D+00 0.417D+00
 Gap=     0.067 Goal=   None    Shift=    0.000
 RMSDP=8.02D-06 MaxDP=4.18D-04 DE=-1.88D-05 OVMax= 1.05D-03

 Cycle  12  Pass 1  IDiag  1:
 RMSU=  4.19D-06    CP:  9.89D-01  9.01D-01  4.34D-01 -8.63D-03  7.03D-01
                    CP:  3.17D-01  6.30D-01  5.32D-01  5.60D-01  7.51D-01
                    CP:  4.83D-01
 E= -872.257416588247     Delta-E=       -0.000005446565 Rises=F Damp=F
 DIIS: error= 5.99D-05 at cycle  12 NSaved=  12.
 NSaved=12 IEnMin=12 EnMin= -872.257416588247     IErMin=12 ErrMin= 5.99D-05
 ErrMax= 5.99D-05  0.00D+00 EMaxC= 1.00D-01 BMatC= 8.72D-07 BMatP= 5.92D-06
 IDIUse=1 WtCom= 1.00D+00 WtEn= 0.00D+00
 Coeff-Com: -0.118D-02 0.208D-02 0.510D-03-0.142D-03-0.111D-02 0.343D-03
 Coeff-Com: -0.758D-02 0.234D-03 0.815D-02 0.122D+00 0.246D+00 0.631D+00
 Coeff:     -0.118D-02 0.208D-02 0.510D-03-0.142D-03-0.111D-02 0.343D-03
 Coeff:     -0.758D-02 0.234D-03 0.815D-02 0.122D+00 0.246D+00 0.631D+00
 Gap=     0.067 Goal=   None    Shift=    0.000
 RMSDP=4.00D-06 MaxDP=1.99D-04 DE=-5.45D-06 OVMax= 8.12D-04

 Cycle  13  Pass 1  IDiag  1:
 RMSU=  2.23D-06    CP:  9.89D-01  9.01D-01  4.33D-01 -8.57D-03  7.04D-01
                    CP:  3.18D-01  6.28D-01  5.32D-01  5.69D-01  7.62D-01
                    CP:  6.57D-01  6.07D-01
 E= -872.257417202972     Delta-E=       -0.000000614724 Rises=F Damp=F
 DIIS: error= 2.00D-05 at cycle  13 NSaved=  13.
 NSaved=13 IEnMin=13 EnMin= -872.257417202972     IErMin=13 ErrMin= 2.00D-05
 ErrMax= 2.00D-05  0.00D+00 EMaxC= 1.00D-01 BMatC= 1.96D-07 BMatP= 8.72D-07
 IDIUse=1 WtCom= 1.00D+00 WtEn= 0.00D+00
 Coeff-Com: -0.281D-03 0.514D-03 0.680D-03-0.364D-04-0.965D-03 0.309D-03
 Coeff-Com: -0.565D-02-0.792D-02-0.106D-01 0.334D-02 0.975D-01 0.487D+00
 Coeff-Com:  0.436D+00
 Coeff:     -0.281D-03 0.514D-03 0.680D-03-0.364D-04-0.965D-03 0.309D-03
 Coeff:     -0.565D-02-0.792D-02-0.106D-01 0.334D-02 0.975D-01 0.487D+00
 Coeff:      0.436D+00
 Gap=     0.067 Goal=   None    Shift=    0.000
 RMSDP=1.92D-06 MaxDP=9.05D-05 DE=-6.15D-07 OVMax= 3.27D-04

 Cycle  14  Pass 1  IDiag  1:
 RMSU=  9.09D-07    CP:  9.89D-01  9.01D-01  4.33D-01 -8.64D-03  7.04D-01
                    CP:  3.18D-01  6.29D-01  5.32D-01  5.68D-01  7.63D-01
                    CP:  6.28D-01  8.05D-01  4.49D-01
 E= -872.257417437868     Delta-E=       -0.000000234897 Rises=F Damp=F
 DIIS: error= 5.44D-06 at cycle  14 NSaved=  14.
 NSaved=14 IEnMin=14 EnMin= -872.257417437868     IErMin=14 ErrMin= 5.44D-06
 ErrMax= 5.44D-06  0.00D+00 EMaxC= 1.00D-01 BMatC= 1.79D-08 BMatP= 1.96D-07
 IDIUse=1 WtCom= 1.00D+00 WtEn= 0.00D+00
 Coeff-Com: -0.708D-04 0.112D-03 0.299D-03-0.826D-05-0.355D-03 0.132D-03
 Coeff-Com: -0.224D-02-0.450D-02-0.722D-02-0.156D-01 0.272D-01 0.232D+00
 Coeff-Com:  0.290D+00 0.480D+00
 Coeff:     -0.708D-04 0.112D-03 0.299D-03-0.826D-05-0.355D-03 0.132D-03
 Coeff:     -0.224D-02-0.450D-02-0.722D-02-0.156D-01 0.272D-01 0.232D+00
 Coeff:      0.290D+00 0.480D+00
 Gap=     0.067 Goal=   None    Shift=    0.000
 RMSDP=6.44D-07 MaxDP=2.98D-05 DE=-2.35D-07 OVMax= 1.15D-04

 Cycle  15  Pass 1  IDiag  1:
 RMSU=  3.00D-07    CP:  9.89D-01  9.02D-01  4.33D-01 -8.65D-03  7.04D-01
                    CP:  3.18D-01  6.29D-01  5.33D-01  5.68D-01  7.66D-01
                    CP:  6.31D-01  8.02D-01  5.48D-01  5.34D-01
 E= -872.257417434251     Delta-E=        0.000000003617 Rises=F Damp=F
 DIIS: error= 2.91D-06 at cycle  15 NSaved=  15.
 NSaved=15 IEnMin=14 EnMin= -872.257417437868     IErMin=15 ErrMin= 2.91D-06
 ErrMax= 2.91D-06  0.00D+00 EMaxC= 1.00D-01 BMatC= 4.73D-09 BMatP= 1.79D-08
 IDIUse=1 WtCom= 1.00D+00 WtEn= 0.00D+00
 Coeff-Com:  0.367D-06-0.231D-04 0.974D-04-0.312D-06-0.974D-04 0.404D-04
 Coeff-Com: -0.685D-03-0.209D-02-0.367D-02-0.131D-01 0.286D-02 0.906D-01
 Coeff-Com:  0.142D+00 0.363D+00 0.421D+00
 Coeff:      0.367D-06-0.231D-04 0.974D-04-0.312D-06-0.974D-04 0.404D-04
 Coeff:     -0.685D-03-0.209D-02-0.367D-02-0.131D-01 0.286D-02 0.906D-01
 Coeff:      0.142D+00 0.363D+00 0.421D+00
 Gap=     0.067 Goal=   None    Shift=    0.000
 RMSDP=2.32D-07 MaxDP=1.30D-05 DE= 3.62D-09 OVMax= 2.50D-05

 Cycle  16  Pass 1  IDiag  1:
 RMSU=  9.90D-08    CP:  9.89D-01  9.02D-01  4.33D-01 -8.65D-03  7.04D-01
                    CP:  3.18D-01  6.29D-01  5.33D-01  5.68D-01  7.65D-01
                    CP:  6.35D-01  8.08D-01  5.53D-01  6.29D-01  4.23D-01
 E= -872.257417458211     Delta-E=       -0.000000023961 Rises=F Damp=F
 DIIS: error= 9.97D-07 at cycle  16 NSaved=  16.
 NSaved=16 IEnMin=16 EnMin= -872.257417458211     IErMin=16 ErrMin= 9.97D-07
 ErrMax= 9.97D-07  0.00D+00 EMaxC= 1.00D-01 BMatC= 3.94D-10 BMatP= 4.73D-09
 IDIUse=1 WtCom= 1.00D+00 WtEn= 0.00D+00
 Coeff-Com: -0.243D-05-0.573D-05 0.325D-04-0.355D-06-0.252D-04 0.143D-04
 Coeff-Com: -0.219D-03-0.867D-03-0.159D-02-0.662D-02 0.324D-03 0.410D-01
 Coeff-Com:  0.689D-01 0.196D+00 0.278D+00 0.425D+00
 Coeff:     -0.243D-05-0.573D-05 0.325D-04-0.355D-06-0.252D-04 0.143D-04
 Coeff:     -0.219D-03-0.867D-03-0.159D-02-0.662D-02 0.324D-03 0.410D-01
 Coeff:      0.689D-01 0.196D+00 0.278D+00 0.425D+00
 Gap=     0.067 Goal=   None    Shift=    0.000
 RMSDP=6.98D-08 MaxDP=2.64D-06 DE=-2.40D-08 OVMax= 5.76D-06

 Cycle  17  Pass 1  IDiag  1:
 RMSU=  3.63D-08    CP:  9.89D-01  9.02D-01  4.33D-01 -8.65D-03  7.04D-01
                    CP:  3.18D-01  6.29D-01  5.33D-01  5.68D-01  7.64D-01
                    CP:  6.34D-01  8.09D-01  5.49D-01  6.25D-01  4.71D-01
                    CP:  5.10D-01
 E= -872.257417458551     Delta-E=       -0.000000000339 Rises=F Damp=F
 DIIS: error= 1.84D-07 at cycle  17 NSaved=  17.
 NSaved=17 IEnMin=17 EnMin= -872.257417458551     IErMin=17 ErrMin= 1.84D-07
 ErrMax= 1.84D-07  0.00D+00 EMaxC= 1.00D-01 BMatC= 2.38D-11 BMatP= 3.94D-10
 IDIUse=1 WtCom= 1.00D+00 WtEn= 0.00D+00
 Coeff-Com: -0.113D-05-0.971D-06 0.424D-05-0.104D-06-0.160D-05 0.230D-05
 Coeff-Com: -0.261D-04-0.185D-03-0.350D-03-0.177D-02-0.955D-04 0.104D-01
 Coeff-Com:  0.188D-01 0.583D-01 0.992D-01 0.239D+00 0.576D+00
 Coeff:     -0.113D-05-0.971D-06 0.424D-05-0.104D-06-0.160D-05 0.230D-05
 Coeff:     -0.261D-04-0.185D-03-0.350D-03-0.177D-02-0.955D-04 0.104D-01
 Coeff:      0.188D-01 0.583D-01 0.992D-01 0.239D+00 0.576D+00
 Gap=     0.067 Goal=   None    Shift=    0.000
 RMSDP=1.65D-08 MaxDP=6.85D-07 DE=-3.39D-10 OVMax= 1.25D-06

 Cycle  18  Pass 1  IDiag  1:
 RMSU=  7.84D-09    CP:  9.89D-01  9.02D-01  4.33D-01 -8.65D-03  7.04D-01
                    CP:  3.18D-01  6.29D-01  5.33D-01  5.68D-01  7.64D-01
                    CP:  6.34D-01  8.09D-01  5.49D-01  6.24D-01  4.74D-01
                    CP:  5.57D-01  6.66D-01
 E= -872.257417458568     Delta-E=       -0.000000000017 Rises=F Damp=F
 DIIS: error= 5.05D-08 at cycle  18 NSaved=  18.
 NSaved=18 IEnMin=18 EnMin= -872.257417458568     IErMin=18 ErrMin= 5.05D-08
 ErrMax= 5.05D-08  0.00D+00 EMaxC= 1.00D-01 BMatC= 1.31D-12 BMatP= 2.38D-11
 IDIUse=1 WtCom= 1.00D+00 WtEn= 0.00D+00
 Coeff-Com: -0.633D-06-0.189D-08 0.948D-06-0.268D-07-0.400D-06 0.894D-06
 Coeff-Com: -0.577D-05-0.655D-04-0.124D-03-0.678D-03-0.379D-04 0.402D-02
 Coeff-Com:  0.760D-02 0.241D-01 0.432D-01 0.113D+00 0.314D+00 0.494D+00
 Coeff:     -0.633D-06-0.189D-08 0.948D-06-0.268D-07-0.400D-06 0.894D-06
 Coeff:     -0.577D-05-0.655D-04-0.124D-03-0.678D-03-0.379D-04 0.402D-02
 Coeff:      0.760D-02 0.241D-01 0.432D-01 0.113D+00 0.314D+00 0.494D+00
 Gap=     0.067 Goal=   None    Shift=    0.000
 RMSDP=4.91D-09 MaxDP=2.42D-07 DE=-1.73D-11 OVMax= 5.57D-07

 Error on total polarization charges =  0.00971
 SCF Done:  E(RB-P86) =  -872.257417459     A.U. after   18 cycles
            NFock= 18  Conv=0.49D-08     -V/T= 2.0067
 KE= 8.664617177074D+02 PE=-4.788711040982D+03 EE= 1.670935697276D+03
 Leave Link  502 at Mon Aug  1 12:54:46 2022, MaxMem=  1073741824 cpu:             830.9 elap:             104.2
 (Enter /afs/ics.muni.cz/software/g16-C.01/avx2/g16/l601.exe)
 Copying SCF densities to generalized density rwf, IOpCl= 0 IROHF=0.

 **********************************************************************

            Population analysis using the SCF Density.

 **********************************************************************

 Orbital symmetries:
       Occupied  (A) (A) (A) (A) (A) (A) (A) (A) (A) (A) (A) (A)
                 (A) (A) (A) (A) (A) (A) (A) (A) (A) (A) (A) (A)
                 (A) (A) (A) (A) (A) (A) (A) (A) (A) (A) (A) (A)
                 (A) (A) (A) (A) (A) (A) (A) (A) (A) (A) (A) (A)
                 (A) (A) (A) (A) (A) (A) (A) (A) (A) (A) (A) (A)
                 (A) (A) (A) (A) (A) (A) (A)
       Virtual   (A) (A) (A) (A) (A) (A) (A) (A) (A) (A) (A) (A)
                 (A) (A) (A) (A) (A) (A) (A) (A) (A) (A) (A) (A)
                 (A) (A) (A) (A) (A) (A) (A) (A) (A) (A) (A) (A)
                 (A) (A) (A) (A) (A) (A) (A) (A) (A) (A) (A) (A)
                 (A) (A) (A) (A) (A) (A) (A) (A) (A) (A) (A) (A)
                 (A) (A) (A) (A) (A) (A) (A) (A) (A) (A) (A) (A)
                 (A) (A) (A) (A) (A) (A) (A) (A) (A) (A) (A) (A)
                 (A) (A) (A) (A) (A) (A) (A) (A) (A) (A) (A) (A)
                 (A) (A) (A) (A) (A) (A) (A) (A) (A) (A) (A) (A)
                 (A) (A) (A) (A) (A) (A) (A) (A) (A) (A) (A) (A)
                 (A) (A) (A) (A) (A) (A) (A) (A) (A) (A) (A) (A)
                 (A) (A) (A) (A) (A) (A) (A) (A) (A) (A) (A) (A)
                 (A) (A) (A) (A) (A) (A) (A) (A) (A) (A) (A) (A)
                 (A) (A) (A) (A) (A) (A) (A) (A) (A) (A) (A) (A)
                 (A) (A) (A) (A) (A) (A) (A) (A) (A) (A) (A) (A)
                 (A) (A) (A) (A) (A) (A) (A) (A) (A) (A) (A) (A)
                 (A) (A) (A) (A) (A) (A) (A) (A) (A) (A) (A) (A)
                 (A) (A) (A) (A) (A) (A) (A) (A) (A) (A) (A) (A)
                 (A) (A) (A) (A) (A) (A) (A) (A) (A) (A) (A) (A)
                 (A) (A) (A) (A) (A) (A) (A) (A) (A) (A) (A) (A)
                 (A) (A) (A) (A) (A) (A) (A) (A) (A) (A) (A) (A)
                 (A) (A) (A) (A) (A) (A) (A)
 The electronic state is 1-A.
 Alpha  occ. eigenvalues --  -18.77305 -18.75562 -14.11023 -14.07041 -14.05670
 Alpha  occ. eigenvalues --  -14.00863 -10.03271 -10.02903 -10.01292  -9.99005
 Alpha  occ. eigenvalues --   -9.98188  -9.97021  -9.95342  -9.94807  -9.93960
 Alpha  occ. eigenvalues --   -9.93345  -9.93086  -9.91897  -9.91449  -0.98151
 Alpha  occ. eigenvalues --   -0.95248  -0.94899  -0.87842  -0.87090  -0.83155
 Alpha  occ. eigenvalues --   -0.80038  -0.73419  -0.71808  -0.69752  -0.67240
 Alpha  occ. eigenvalues --   -0.65777  -0.62443  -0.59877  -0.57567  -0.56446
 Alpha  occ. eigenvalues --   -0.54253  -0.52630  -0.50653  -0.47750  -0.46134
 Alpha  occ. eigenvalues --   -0.45563  -0.43822  -0.42675  -0.42082  -0.41033
 Alpha  occ. eigenvalues --   -0.40355  -0.40308  -0.38732  -0.38226  -0.37132
 Alpha  occ. eigenvalues --   -0.36860  -0.36379  -0.35821  -0.35773  -0.35341
 Alpha  occ. eigenvalues --   -0.32962  -0.32705  -0.32205  -0.31571  -0.27378
 Alpha  occ. eigenvalues --   -0.26670  -0.24857  -0.23827  -0.23668  -0.23116
 Alpha  occ. eigenvalues --   -0.21521  -0.20495
 Alpha virt. eigenvalues --   -0.13812  -0.06787  -0.04580  -0.02788  -0.00065
 Alpha virt. eigenvalues --    0.04161   0.05252   0.05833   0.06744   0.08014
 Alpha virt. eigenvalues --    0.08064   0.08723   0.09146   0.10523   0.11153
 Alpha virt. eigenvalues --    0.11589   0.12222   0.13475   0.14100   0.16226
 Alpha virt. eigenvalues --    0.17823   0.18146   0.18316   0.18790   0.19031
 Alpha virt. eigenvalues --    0.20642   0.21494   0.22812   0.25066   0.25835
 Alpha virt. eigenvalues --    0.27118   0.28320   0.29304   0.31329   0.32193
 Alpha virt. eigenvalues --    0.34218   0.34674   0.35205   0.36995   0.37876
 Alpha virt. eigenvalues --    0.38303   0.38800   0.39239   0.39445   0.40723
 Alpha virt. eigenvalues --    0.41633   0.42197   0.42887   0.43478   0.44236
 Alpha virt. eigenvalues --    0.45875   0.46238   0.46474   0.47137   0.48132
 Alpha virt. eigenvalues --    0.48311   0.48939   0.50359   0.50977   0.51875
 Alpha virt. eigenvalues --    0.53145   0.53818   0.55070   0.55448   0.56164
 Alpha virt. eigenvalues --    0.57099   0.57541   0.58628   0.59568   0.59677
 Alpha virt. eigenvalues --    0.60195   0.60822   0.61816   0.62108   0.62409
 Alpha virt. eigenvalues --    0.62805   0.63977   0.64744   0.66138   0.66370
 Alpha virt. eigenvalues --    0.67636   0.68560   0.70090   0.70543   0.71623
 Alpha virt. eigenvalues --    0.72393   0.73229   0.74161   0.74423   0.76307
 Alpha virt. eigenvalues --    0.77806   0.80046   0.81001   0.82363   0.83836
 Alpha virt. eigenvalues --    0.85498   0.86159   0.86367   0.87228   0.87861
 Alpha virt. eigenvalues --    0.88953   0.89756   0.90488   0.92204   0.93402
 Alpha virt. eigenvalues --    0.94178   0.95752   0.96194   0.97217   0.98458
 Alpha virt. eigenvalues --    0.98739   0.99840   1.01537   1.01720   1.02664
 Alpha virt. eigenvalues --    1.03117   1.04645   1.05385   1.07517   1.08185
 Alpha virt. eigenvalues --    1.10828   1.12202   1.13373   1.15089   1.15983
 Alpha virt. eigenvalues --    1.16732   1.20109   1.21296   1.22259   1.24855
 Alpha virt. eigenvalues --    1.25312   1.28070   1.30177   1.30507   1.31216
 Alpha virt. eigenvalues --    1.34376   1.36048   1.36621   1.37677   1.38070
 Alpha virt. eigenvalues --    1.39798   1.40789   1.41369   1.41843   1.42239
 Alpha virt. eigenvalues --    1.44274   1.45603   1.46006   1.48091   1.49094
 Alpha virt. eigenvalues --    1.49604   1.49908   1.51613   1.51939   1.53708
 Alpha virt. eigenvalues --    1.54738   1.55349   1.56377   1.56549   1.57516
 Alpha virt. eigenvalues --    1.58537   1.59598   1.60298   1.60814   1.61054
 Alpha virt. eigenvalues --    1.62356   1.63352   1.64299   1.64640   1.65718
 Alpha virt. eigenvalues --    1.66885   1.67394   1.68001   1.68688   1.69978
 Alpha virt. eigenvalues --    1.70727   1.71443   1.72574   1.74621   1.75617
 Alpha virt. eigenvalues --    1.76061   1.76679   1.77233   1.78172   1.80472
 Alpha virt. eigenvalues --    1.81204   1.83026   1.85078   1.85629   1.87448
 Alpha virt. eigenvalues --    1.89454   1.91486   1.91609   1.94762   1.96557
 Alpha virt. eigenvalues --    1.97910   1.98937   2.00616   2.02014   2.02370
 Alpha virt. eigenvalues --    2.03090   2.04104   2.05364   2.07645   2.07972
 Alpha virt. eigenvalues --    2.08266   2.12616   2.14341   2.15950   2.16543
 Alpha virt. eigenvalues --    2.17709   2.19077   2.21298   2.21549   2.24229
 Alpha virt. eigenvalues --    2.24390   2.25898   2.27831   2.32448   2.34538
 Alpha virt. eigenvalues --    2.36201   2.36447   2.37334   2.38909   2.39440
 Alpha virt. eigenvalues --    2.40191   2.41605   2.42626   2.43146   2.44926
 Alpha virt. eigenvalues --    2.46023   2.49042   2.49075   2.50791   2.51848
 Alpha virt. eigenvalues --    2.54665   2.55585   2.56805   2.57394   2.59540
 Alpha virt. eigenvalues --    2.64030   2.68109   2.69199   2.69629   2.70067
 Alpha virt. eigenvalues --    2.72234   2.78600   2.81914   2.87382   2.92796
 Alpha virt. eigenvalues --    2.95305   3.00362   3.16776   3.26645   3.28706
 Alpha virt. eigenvalues --    3.32379   3.34493   3.39844   3.45643
          Condensed to atoms (all electrons):
               1          2          3          4          5          6
     1  N    6.513772   0.443679  -0.083203  -0.083509  -0.034600   0.000072
     2  C    0.443679   4.493498   0.799457   0.332960  -0.060432  -0.000649
     3  O   -0.083203   0.799457   7.654128  -0.086506  -0.002427  -0.000015
     4  N   -0.083509   0.332960  -0.086506   6.334897   0.411813  -0.085542
     5  C   -0.034600  -0.060432  -0.002427   0.411813   4.826891   0.812785
     6  O    0.000072  -0.000649  -0.000015  -0.085542   0.812785   7.606999
     7  C   -0.024986  -0.010473   0.000869  -0.092328   0.086606  -0.093316
     8  N    0.004308   0.001240   0.000001   0.001493  -0.047534   0.000287
     9  C    0.001104   0.000099   0.000001   0.000259  -0.000910   0.000058
    10  C    0.000000   0.000002   0.000000   0.000003  -0.001506   0.000017
    11  C   -0.000000  -0.000000  -0.000000  -0.000000   0.000016   0.000000
    12  C    0.000000  -0.000000  -0.000000   0.000000  -0.000000   0.000000
    13  C    0.000002   0.000000   0.000000   0.000000  -0.000005  -0.000000
    14  C   -0.000000   0.000000   0.000000   0.000000  -0.000000  -0.000000
    15  C   -0.000139  -0.000004  -0.000000  -0.000001   0.000114  -0.000000
    16  C    0.000819  -0.000062  -0.000004  -0.000094   0.002701  -0.000064
    17  N   -0.057930   0.000456  -0.000028   0.000123   0.000819  -0.000016
    18  C    0.578772  -0.099534  -0.007210   0.009353  -0.095365   0.004592
    19  C   -0.007483  -0.000359  -0.000035   0.000040   0.000108   0.000001
    20  H    0.006458  -0.007607   0.005929   0.315685  -0.013519   0.006123
    21  H   -0.000002  -0.000000   0.000000   0.000001  -0.000070   0.000003
    22  H    0.000000   0.000000  -0.000000  -0.000000   0.000000  -0.000000
    23  H    0.000000   0.000000   0.000000  -0.000000   0.000000  -0.000000
    24  H    0.000000   0.000000  -0.000000  -0.000000   0.000000   0.000000
    25  H    0.000000  -0.000000  -0.000000   0.000000  -0.000000   0.000000
    26  H   -0.000000   0.000000  -0.000000  -0.000000  -0.000000  -0.000000
    27  H    0.000000   0.000000   0.000000   0.000000   0.000000   0.000000
    28  H   -0.000019  -0.000001  -0.000000  -0.000000   0.000000  -0.000000
    29  H    0.001108  -0.000012  -0.000001   0.000001   0.000010  -0.000000
    30  H    0.026822   0.000936  -0.000080   0.000079   0.000082   0.000000
    31  H    0.002127   0.000182  -0.000004  -0.000002   0.000004  -0.000000
               7          8          9         10         11         12
     1  N   -0.024986   0.004308   0.001104   0.000000  -0.000000   0.000000
     2  C   -0.010473   0.001240   0.000099   0.000002  -0.000000  -0.000000
     3  O    0.000869   0.000001   0.000001   0.000000  -0.000000  -0.000000
     4  N   -0.092328   0.001493   0.000259   0.000003  -0.000000   0.000000
     5  C    0.086606  -0.047534  -0.000910  -0.001506   0.000016  -0.000000
     6  O   -0.093316   0.000287   0.000058   0.000017   0.000000   0.000000
     7  C    5.508519   0.571942  -0.075182  -0.000222   0.000213   0.000000
     8  N    0.571942   6.304543   0.515299  -0.043712   0.003061  -0.000111
     9  C   -0.075182   0.515299   5.034429   0.404157   0.035039   0.014170
    10  C   -0.000222  -0.043712   0.404157   4.951599   0.467529  -0.090571
    11  C    0.000213   0.003061   0.035039   0.467529   4.995948   0.469090
    12  C    0.000000  -0.000111   0.014170  -0.090571   0.469090   4.591309
    13  C   -0.000104  -0.000040  -0.083792   0.032867   0.360622  -0.097353
    14  C   -0.000001   0.000001  -0.001353   0.013655  -0.096671  -0.013521
    15  C    0.002497   0.007156  -0.004399  -0.103354   0.021433   0.016407
    16  C   -0.033177  -0.068122   0.204198  -0.002393  -0.096990  -0.001814
    17  N   -0.031985  -0.012039  -0.036736   0.003691   0.000708   0.000002
    18  C    0.152708  -0.060451  -0.023342   0.004968  -0.000081   0.000001
    19  C    0.008526  -0.001122   0.007283   0.000096  -0.000066  -0.000000
    20  H    0.014240  -0.000063  -0.000006  -0.000001   0.000000  -0.000000
    21  H    0.000575   0.006798  -0.047773   0.359232  -0.036958  -0.023456
    22  H   -0.000000   0.000003  -0.000555   0.001309   0.002456   0.360197
    23  H    0.000001  -0.000029   0.001111  -0.011507   0.000079   0.368813
    24  H   -0.000000   0.000004  -0.000455   0.000834   0.001751   0.361134
    25  H   -0.000000  -0.000000   0.000049  -0.000029  -0.009491   0.005551
    26  H   -0.000000  -0.000000  -0.000025  -0.000290   0.008250  -0.000170
    27  H    0.000000  -0.000000   0.000061  -0.000063  -0.008627   0.004998
    28  H    0.000032  -0.000157   0.008751  -0.000250   0.014174  -0.000230
    29  H   -0.000383  -0.000028   0.000104   0.000016  -0.000095  -0.000001
    30  H    0.001690  -0.000093  -0.000423   0.000013   0.000002  -0.000000
    31  H    0.000112   0.000001  -0.000333  -0.000011   0.000005   0.000000
              13         14         15         16         17         18
     1  N    0.000002  -0.000000  -0.000139   0.000819  -0.057930   0.578772
     2  C    0.000000   0.000000  -0.000004  -0.000062   0.000456  -0.099534
     3  O    0.000000   0.000000  -0.000000  -0.000004  -0.000028  -0.007210
     4  N    0.000000   0.000000  -0.000001  -0.000094   0.000123   0.009353
     5  C   -0.000005  -0.000000   0.000114   0.002701   0.000819  -0.095365
     6  O   -0.000000  -0.000000  -0.000000  -0.000064  -0.000016   0.004592
     7  C   -0.000104  -0.000001   0.002497  -0.033177  -0.031985   0.152708
     8  N   -0.000040   0.000001   0.007156  -0.068122  -0.012039  -0.060451
     9  C   -0.083792  -0.001353  -0.004399   0.204198  -0.036736  -0.023342
    10  C    0.032867   0.013655  -0.103354  -0.002393   0.003691   0.004968
    11  C    0.360622  -0.096671   0.021433  -0.096990   0.000708  -0.000081
    12  C   -0.097353  -0.013521   0.016407  -0.001814   0.000002   0.000001
    13  C    4.929555   0.471166   0.461868   0.043374   0.002954   0.000348
    14  C    0.471166   4.589000  -0.089059   0.013366  -0.000086   0.000003
    15  C    0.461868  -0.089059   5.053720   0.330140  -0.049709   0.004577
    16  C    0.043374   0.013366   0.330140   5.159915   0.417571  -0.081874
    17  N    0.002954  -0.000086  -0.049709   0.417571   6.280946   0.405325
    18  C    0.000348   0.000003   0.004577  -0.081874   0.405325   5.033161
    19  C    0.001423  -0.000023  -0.006682  -0.063968   0.383819  -0.062510
    20  H   -0.000000   0.000000   0.000000   0.000012   0.000032  -0.001143
    21  H    0.016278  -0.000096  -0.002464   0.018719  -0.000130   0.000062
    22  H   -0.009513   0.006341   0.000014   0.000137  -0.000000  -0.000000
    23  H    0.007689  -0.000160  -0.000377  -0.000086   0.000000   0.000000
    24  H   -0.009225   0.005307   0.000065   0.000074  -0.000000  -0.000000
    25  H    0.004556   0.361967   0.001280  -0.000410   0.000003  -0.000000
    26  H    0.001881   0.367729  -0.014258   0.000804  -0.000003   0.000001
    27  H    0.004879   0.361450   0.001183  -0.000473   0.000003  -0.000000
    28  H   -0.015146  -0.021389   0.361827  -0.041873  -0.009817  -0.000666
    29  H    0.002058   0.000053   0.009953  -0.018513  -0.009869   0.004807
    30  H   -0.000055  -0.000001  -0.000178   0.004617  -0.016032  -0.012162
    31  H    0.000091  -0.000002   0.002548  -0.000756  -0.019305  -0.000519
              19         20         21         22         23         24
     1  N   -0.007483   0.006458  -0.000002   0.000000   0.000000   0.000000
     2  C   -0.000359  -0.007607  -0.000000   0.000000   0.000000   0.000000
     3  O   -0.000035   0.005929   0.000000  -0.000000   0.000000  -0.000000
     4  N    0.000040   0.315685   0.000001  -0.000000  -0.000000  -0.000000
     5  C    0.000108  -0.013519  -0.000070   0.000000   0.000000   0.000000
     6  O    0.000001   0.006123   0.000003  -0.000000  -0.000000   0.000000
     7  C    0.008526   0.014240   0.000575  -0.000000   0.000001  -0.000000
     8  N   -0.001122  -0.000063   0.006798   0.000003  -0.000029   0.000004
     9  C    0.007283  -0.000006  -0.047773  -0.000555   0.001111  -0.000455
    10  C    0.000096  -0.000001   0.359232   0.001309  -0.011507   0.000834
    11  C   -0.000066   0.000000  -0.036958   0.002456   0.000079   0.001751
    12  C   -0.000000  -0.000000  -0.023456   0.360197   0.368813   0.361134
    13  C    0.001423  -0.000000   0.016278  -0.009513   0.007689  -0.009225
    14  C   -0.000023   0.000000  -0.000096   0.006341  -0.000160   0.005307
    15  C   -0.006682   0.000000  -0.002464   0.000014  -0.000377   0.000065
    16  C   -0.063968   0.000012   0.018719   0.000137  -0.000086   0.000074
    17  N    0.383819   0.000032  -0.000130  -0.000000   0.000000  -0.000000
    18  C   -0.062510  -0.001143   0.000062  -0.000000   0.000000  -0.000000
    19  C    4.492491  -0.000003   0.000018  -0.000000  -0.000000   0.000000
    20  H   -0.000003   0.544823  -0.000000   0.000000  -0.000000   0.000000
    21  H    0.000018  -0.000000   0.724836   0.000419   0.005430   0.000380
    22  H   -0.000000   0.000000   0.000419   0.627365  -0.025259  -0.028115
    23  H   -0.000000  -0.000000   0.005430  -0.025259   0.635804  -0.025094
    24  H    0.000000   0.000000   0.000380  -0.028115  -0.025094   0.626317
    25  H   -0.000001  -0.000000  -0.000005  -0.001417   0.000093   0.004158
    26  H   -0.000013   0.000000   0.000013   0.000125  -0.000026   0.000093
    27  H    0.000002  -0.000000  -0.000006   0.004212   0.000095  -0.001359
    28  H    0.004071   0.000000   0.000047  -0.000026   0.000015   0.000000
    29  H    0.387604  -0.000000   0.000001   0.000001  -0.000000  -0.000000
    30  H    0.385044  -0.000006   0.000000   0.000000  -0.000000  -0.000000
    31  H    0.400158   0.000000  -0.000000  -0.000000  -0.000000   0.000000
              25         26         27         28         29         30
     1  N    0.000000  -0.000000   0.000000  -0.000019   0.001108   0.026822
     2  C   -0.000000   0.000000   0.000000  -0.000001  -0.000012   0.000936
     3  O   -0.000000  -0.000000   0.000000  -0.000000  -0.000001  -0.000080
     4  N    0.000000  -0.000000   0.000000  -0.000000   0.000001   0.000079
     5  C   -0.000000  -0.000000   0.000000   0.000000   0.000010   0.000082
     6  O    0.000000  -0.000000   0.000000  -0.000000  -0.000000   0.000000
     7  C   -0.000000  -0.000000   0.000000   0.000032  -0.000383   0.001690
     8  N   -0.000000  -0.000000  -0.000000  -0.000157  -0.000028  -0.000093
     9  C    0.000049  -0.000025   0.000061   0.008751   0.000104  -0.000423
    10  C   -0.000029  -0.000290  -0.000063  -0.000250   0.000016   0.000013
    11  C   -0.009491   0.008250  -0.008627   0.014174  -0.000095   0.000002
    12  C    0.005551  -0.000170   0.004998  -0.000230  -0.000001  -0.000000
    13  C    0.004556   0.001881   0.004879  -0.015146   0.002058  -0.000055
    14  C    0.361967   0.367729   0.361450  -0.021389   0.000053  -0.000001
    15  C    0.001280  -0.014258   0.001183   0.361827   0.009953  -0.000178
    16  C   -0.000410   0.000804  -0.000473  -0.041873  -0.018513   0.004617
    17  N    0.000003  -0.000003   0.000003  -0.009817  -0.009869  -0.016032
    18  C   -0.000000   0.000001  -0.000000  -0.000666   0.004807  -0.012162
    19  C   -0.000001  -0.000013   0.000002   0.004071   0.387604   0.385044
    20  H   -0.000000   0.000000  -0.000000   0.000000  -0.000000  -0.000006
    21  H   -0.000005   0.000013  -0.000006   0.000047   0.000001   0.000000
    22  H   -0.001417   0.000125   0.004212  -0.000026   0.000001   0.000000
    23  H    0.000093  -0.000026   0.000095   0.000015  -0.000000  -0.000000
    24  H    0.004158   0.000093  -0.001359   0.000000  -0.000000  -0.000000
    25  H    0.612675  -0.024637  -0.024993   0.000322   0.000004   0.000000
    26  H   -0.024637   0.631284  -0.024691   0.007823   0.000010   0.000000
[...]
 0094057,0.00033676,0.00119242,-0.00010809,0.00203391,-0.10740373,0.047
 09762,-0.21902357,0.00095739,-0.00017806,-0.00066401,0.00005356,0.0000
 8713,-0.00028582,0.00008528,-0.00003177,0.00006976,0.00008296,0.000045
 02,0.00005121,-0.00000319,-0.00000020,-0.00002075,-0.00000057,-0.00000
 217,0.00000110,-0.00000359,0.00004147,-0.00000700,-0.00006339,0.000030
 11,-0.00040628,0.00013365,-0.00028513,0.00013500,0.00027090,0.00038153
 ,0.00032064,0.11637595,-0.05116955,0.23697401,0.00012894,-0.00010400,0
 .00001003,-0.00006306,0.00010991,-0.00000516,0.00007367,-0.00004415,0.
 00000577,0.00001418,-0.00002780,0.00000115,-0.00000817,0.00013452,0.00
 000132,-0.00002562,-0.00007108,-0.00000263,0.00015471,-0.00005843,0.00
 000991,-0.00013882,0.00012069,-0.00000758,0.00015878,-0.00004772,0.000
 00712,0.00014742,0.00035432,-0.00001684,-0.00031187,0.00184172,-0.0001
 5450,-0.00026752,-0.00024590,0.00000384,0.00643888,0.00720367,0.000726
 39,-0.21543628,-0.12717834,-0.01468036,0.00081746,0.00200947,0.0001026
 3,0.00009779,0.00015434,0.00002741,0.00009879,-0.00015021,0.00000881,-
 0.00012491,0.00003628,-0.00001260,0.00000364,-0.00003603,0.00000094,-0
 .00000034,0.00000345,-0.00000012,0.00000616,0.00007699,0.00001812,0.00
 017696,0.00003557,-0.00027717,0.00011711,-0.00014876,-0.00000931,0.000
 09700,0.00002892,0.00028037,-0.01016903,-0.00733434,0.00110661,0.23061
 792,0.00021327,-0.00009307,0.00001634,-0.00011734,0.00015500,-0.000008
 51,0.00013751,-0.00006786,0.00001050,0.00005147,-0.00003454,0.00000390
 ,-0.00003302,0.00030645,-0.00000094,-0.00005036,-0.00014612,-0.0000047
 4,0.00044711,-0.00013689,0.00003447,-0.00014240,0.00039216,-0.00000914
 ,-0.00007840,-0.00023331,-0.00000801,-0.00179877,-0.00040524,-0.000144
 64,0.00314480,-0.00482862,0.00021173,0.00078091,-0.00002489,0.00006349
 ,-0.02484497,-0.01754757,-0.00206965,-0.12206844,-0.13215036,-0.010270
 86,-0.00196482,0.00112714,-0.00014496,0.00017413,0.00036027,0.00001805
 ,0.00000366,0.00006654,0.00000069,-0.00031409,-0.00018196,-0.00002599,
 -0.00006135,-0.00004221,-0.00000491,0.00000247,0.00000882,0.00000023,0
 .00017290,-0.00048730,0.00001230,-0.00000020,0.00005506,0.00014620,-0.
 00013772,0.00012039,-0.00001165,0.00002019,0.00005685,-0.00014569,0.00
 623076,0.00359465,-0.00000745,0.13310482,0.14636227,0.00001190,-0.0000
 0866,-0.00000402,-0.00000660,0.00000948,0.00000936,0.00000696,-0.00000
 389,-0.00000200,0.00000178,-0.00000240,-0.00000205,0.00000019,0.000013
 08,-0.00001485,-0.00000262,-0.00000671,0.00000272,0.00001395,-0.000005
 96,0.00002453,-0.00000986,0.00001312,-0.00003566,0.00000772,-0.0000067
 8,0.00006575,-0.00002786,0.00002592,0.00037083,-0.00014676,0.00011024,
 0.00172760,0.00001104,-0.00001754,-0.00034173,0.00054736,0.00050000,-0
 .00208438,-0.01465263,-0.01068429,-0.04174893,0.00008079,0.00016613,-0
 .00032549,0.00002659,0.00001637,-0.00021900,0.00000971,-0.00001126,-0.
 00002331,-0.00001484,0.00000114,0.00003405,0.00000057,-0.00000309,-0.0
 0001017,-0.00000011,0.00000033,0.00000130,0.00001845,0.00000484,-0.000
 21523,-0.00022373,-0.00001375,0.00008270,-0.00000959,-0.00001204,0.000
 22611,0.00022709,0.00001828,0.00015994,-0.01901375,-0.01488756,-0.0008
 5104,0.01601253,0.01123257,0.04085383,-0.00008324,0.00011123,-0.000006
 76,-0.00001481,-0.00011843,0.00000597,-0.00001520,0.00003158,-0.000003
 39,0.00006494,0.00001015,0.00000372,-0.00004198,0.00011459,-0.00002683
 ,-0.00000864,-0.00002832,0.00000261,0.00023649,-0.00013930,0.00004570,
 -0.00023997,0.00034391,0.00000680,0.00014159,-0.00044124,0.00002597,-0
 .00020961,0.00050673,0.00000619,-0.00141632,-0.00148471,-0.00025512,0.
 00077154,-0.00114362,-0.00065942,-0.00707106,0.00524211,0.00367283,-0.
 13470968,0.02892883,0.12213252,0.00104012,0.00110027,0.00054756,-0.000
 29583,0.00073854,-0.00073495,0.00010772,0.00020254,-0.00001591,-0.0000
 4865,-0.00014282,0.00005305,-0.00004380,-0.00000747,-0.00003585,0.0000
 0156,0.00000363,0.00000197,0.00000743,0.00005245,-0.00000413,-0.000113
 39,0.00003557,0.00038155,0.00006002,0.00001504,0.00000496,-0.00001886,
 0.00011711,0.00001667,0.00777337,-0.00312118,-0.01136998,-0.01273735,0
 .00595004,0.01714946,0.14665411,0.00034508,-0.00019196,0.00000797,-0.0
 0021400,0.00022541,-0.00004637,0.00023517,-0.00011405,0.00002829,0.000
 11927,-0.00007778,0.00001553,-0.00011095,0.00058780,0.00000718,-0.0000
 7709,-0.00028226,-0.00001147,0.00071652,-0.00029782,0.00011571,-0.0005
 1607,0.00066241,-0.00013148,0.00030987,-0.00080510,-0.00011537,-0.0001
 7311,0.00058312,0.00078599,0.00034445,-0.00024220,0.00089187,0.0002041
 6,-0.00017194,-0.00108876,0.01948001,-0.00742378,-0.02273395,0.0312587
 8,-0.05114032,-0.04153494,-0.00042661,-0.00295628,0.00006939,0.0006173
 6,0.00033409,0.00150551,-0.00002886,-0.00034374,0.00002287,-0.00044012
 ,-0.00020292,-0.00015203,-0.00006957,-0.00007032,0.00005796,0.00000301
 ,0.00001619,-0.00000316,-0.00005840,0.00001915,-0.00011714,-0.00080899
 ,-0.00012499,0.00025347,0.00001124,0.00013651,0.00023459,-0.00024519,0
 .00000119,0.00008726,-0.00406616,0.00078619,0.00479361,-0.00958735,0.0
 0343284,0.01356751,-0.03694413,0.05765904,0.00005100,-0.00001427,0.000
 00819,-0.00003641,0.00003101,0.00000188,0.00003855,-0.00001639,0.00000
 070,0.00002166,-0.00001000,0.00000122,-0.00002127,0.00010067,-0.000014
 84,-0.00001140,-0.00004770,0.00000146,0.00012195,-0.00004734,-0.000001
 98,-0.00007556,0.00011064,0.00002810,0.00006762,-0.00010487,0.00000126
 ,-0.00016771,-0.00000332,-0.00013988,0.00093284,-0.00044351,0.00083533
 ,0.00029393,0.00076497,0.00026739,-0.00244328,0.00085872,0.00217931,0.
 12140557,-0.04129478,-0.18306240,-0.00068759,0.00032940,-0.00072613,-0
 .00004975,0.00004203,-0.00039580,-0.00007862,0.00005992,0.00005422,-0.
 00010492,-0.00007153,0.00004420,-0.00000162,-0.00000181,-0.00002535,0.
 00000069,0.00000299,0.00000150,0.00000518,-0.00003326,-0.00000892,-0.0
 0034550,-0.00038332,0.00033648,-0.00014599,0.00029197,0.00011868,0.000
 12086,-0.00000850,-0.00039625,0.01569608,-0.00514486,-0.01933648,-0.00
 312980,0.00101527,0.00188474,-0.13141061,0.04399668,0.19814915,0.00024
 349,-0.00023571,0.00000870,-0.00007859,0.00027399,-0.00001713,0.000132
 58,-0.00010383,0.00001252,-0.00001088,-0.00003097,-0.00000050,-0.00001
 875,0.00017848,0.00000080,-0.00005866,-0.00011218,-0.00000399,0.000464
 56,-0.00006960,0.00004294,0.00011670,0.00082908,-0.00000880,-0.0002095
 2,0.00159028,-0.00038604,-0.00028417,0.00102367,0.00003746,-0.00375268
 ,0.00285826,-0.00078559,-0.00037339,-0.00138926,-0.00004698,-0.0160070
 2,-0.02058395,-0.00162837,0.00056639,-0.00203326,0.00039951,-0.1789259
 6,-0.13847906,-0.01247684,0.00840081,0.00701683,0.00050460,-0.00028827
 ,-0.00083774,0.00013188,-0.00028918,-0.00010902,0.00002554,-0.00174262
 ,0.00161420,-0.00012947,-0.00000540,-0.00000226,-0.00000044,-0.0000212
 1,-0.00013278,0.00004389,0.00000896,0.00004717,0.00004025,-0.00047726,
 0.00008490,-0.00002638,0.00001731,0.00004937,-0.00003807,0.00027286,0.
 00005808,0.00005450,0.00014000,0.00116807,-0.00001745,0.00020880,0.000
 13807,-0.00004014,0.19468300,0.00003563,0.00028169,0.00000363,-0.00004
 847,-0.00006783,-0.00000502,0.00010262,-0.00001032,0.00000820,0.000148
 96,-0.00001470,0.00001170,-0.00006779,0.00033122,-0.00000351,0.0000445
 6,-0.00016555,0.00000274,-0.00022977,0.00031527,-0.00001611,-0.0014793
 9,-0.00141417,-0.00012561,0.00436517,-0.00280648,0.00030389,0.00053736
 ,-0.00014668,0.00004534,0.00201767,0.00025597,0.00012640,0.00032838,0.
 00046694,0.00002820,0.00599253,0.00611167,0.00048760,0.00209828,0.0011
 9987,0.00019708,-0.13832214,-0.19785179,-0.01180704,-0.02018259,-0.015
 06980,-0.00168490,-0.00184533,0.00109202,-0.00012887,-0.00004685,-0.00
 041446,-0.00000249,-0.00055242,0.00017203,-0.00004293,0.00002651,0.000
 02043,0.00000220,-0.00008639,-0.00004965,-0.00000397,-0.00006871,0.000
 00670,-0.00000772,0.00016080,0.00000696,0.00001339,-0.00006889,0.00000
 691,-0.00000319,0.00006079,-0.00004618,-0.00000988,-0.00018143,0.00032
 101,-0.00001528,0.00005365,-0.00004125,0.00001707,0.14597506,0.2068837
 1,0.00001033,-0.00001794,0.00011855,-0.00001896,0.00002069,0.00015550,
 0.00001374,-0.00000816,-0.00003221,0.00000048,-0.00000258,-0.00000658,
 -0.00000052,0.00001616,-0.00001696,-0.00000319,-0.00000978,-0.00001584
 ,0.00004213,-0.00000345,-0.00008118,-0.00002130,0.00005629,0.00028177,
 -0.00037144,0.00008491,0.00476018,0.00003531,0.00008288,-0.00068804,-0
 .00078998,0.00019325,0.00634185,-0.00003695,-0.00010762,0.00011787,-0.
 00148713,-0.00160994,0.00311276,0.00042571,-0.00012633,-0.00462176,-0.
 01247630,-0.01182054,-0.03115397,0.00035952,0.00046254,0.00250503,0.00
 012691,-0.00005018,-0.00200235,0.00002574,-0.00000702,-0.00062057,-0.0
 0014169,0.00012774,0.00000778,-0.00000030,-0.00000006,0.00000008,0.000
 04417,-0.00000767,-0.00058330,0.00001206,0.00001507,0.00000749,-0.0000
 2591,0.00000743,-0.00013725,-0.00001132,-0.00000731,-0.00000078,-0.000
 45429,0.00051120,0.00013164,-0.00002655,0.00009051,0.00043645,0.000465
 76,-0.00049747,0.00019261,0.01446198,0.01250542,0.02242257,0.00137564,
 0.00090198,-0.00164356,0.00034738,0.00057253,0.00032539,0.00017051,-0.
 00018413,0.00005278,-0.00011042,0.00014898,-0.00009912,-0.00022571,0.0
 0017954,-0.00016746,-0.00002821,-0.00022017,0.00004064,0.00024356,-0.0
 0037886,0.00154723,-0.00024827,-0.00000969,-0.00085263,0.00009939,-0.0
 0031214,0.00102159,0.00032706,-0.00016669,0.00005386,0.00013199,0.0004
 1509,-0.00009537,0.00000115,0.00002582,-0.00002584,-0.00051218,0.00007
 261,0.00027359,0.00002262,-0.00003005,0.00005507,0.00029668,0.00047946
 ,-0.00042157,0.00150478,-0.00140470,-0.00036665,-0.00151994,-0.0209786
 0,-0.02125786,-0.00425604,0.00115216,-0.00058899,-0.04942725,0.0276622
 7,0.04110370,0.00004013,0.00004011,0.00001266,0.00000042,-0.00001023,0
 .00002541,0.00000458,-0.00000681,-0.00000089,0.00000748,-0.00000153,0.
 00000126,-0.00000120,-0.00000302,0.00000061,0.00000941,-0.00001211,-0.
 00000024,-0.00000255,-0.00000041,-0.00000326,-0.00001007,-0.00001203,-
 0.00000625,-0.00127882,0.00050398,-0.00110515,0.05366100,0.00077454,-0
 .00095866,0.00043113,-0.00042133,0.00107399,-0.00012541,0.00042711,-0.
 00036337,0.00001196,-0.00012826,-0.00026947,0.00006847,-0.00012217,0.0
 0033269,-0.00011605,-0.00017395,-0.00043534,0.00000356,0.00048672,-0.0
 0067990,0.00058439,-0.00003438,0.00022852,-0.00016656,-0.00040411,-0.0
 0059404,0.00037885,-0.00004942,0.00018444,-0.00000598,-0.00008165,-0.0
 0027386,0.00002037,0.00001745,0.00001345,0.00001067,0.00074797,-0.0000
 2285,-0.00006045,-0.00009296,0.00004494,0.00000220,-0.00049631,0.00101
 724,0.00024561,0.00315557,-0.00078865,0.00026005,-0.00318657,-0.021233
 52,-0.01645550,-0.00342367,0.00116951,-0.00173212,0.02375138,-0.118548
 89,-0.11691898,-0.00003252,-0.00000313,0.00000452,-0.00001966,-0.00001
 189,-0.00000558,-0.00002815,0.00001106,0.00000333,-0.00001253,-0.00001
 022,-0.00000076,-0.00002236,0.00001121,-0.00000875,0.00000631,0.000028
 27,-0.00000325,0.00000599,0.00001020,-0.00000299,0.00000302,0.00002764
 ,0.00000261,0.00036710,0.00014218,0.00022663,-0.01950918,0.13565350,0.
 00034367,-0.00022593,-0.00024962,0.00004345,0.00038452,-0.00000163,0.0
 0008496,-0.00010442,0.00001196,-0.00010244,-0.00000580,-0.00002913,0.0
 0008363,0.00001128,0.00006567,-0.00004235,-0.00000498,-0.00001235,-0.0
 0006262,0.00011419,-0.00015346,0.00002557,0.00016555,0.00002321,-0.000
 28572,-0.00021121,-0.00009723,-0.00001004,0.00010419,-0.00000545,0.000
 03580,-0.00015223,0.00004227,0.00002300,0.00004755,0.00000475,0.000615
 37,0.00036642,-0.00006550,-0.00002337,0.00001097,-0.00000802,0.0000010
 5,-0.00052432,-0.00000885,0.00103067,-0.00091617,0.00069844,-0.0030347
 5,-0.00053076,0.00360260,-0.00025149,0.00173558,-0.00053315,0.03507742
 ,-0.12020452,-0.21832379,-0.00000297,0.00000682,0.00000561,0.00000271,
 0.00000868,-0.00000350,-0.00000030,-0.00000316,-0.00000076,0.00002199,
 -0.00000008,0.00000099,-0.00000092,-0.00000329,0.00000002,0.00001732,-
 0.00001068,0.00000739,-0.00001606,0.00001899,-0.00000197,0.00001868,-0
 .00001689,-0.00000268,-0.00038103,0.00063211,-0.00025043,-0.03738230,0
 .12994001,0.22933446,0.00070340,0.00292735,0.00017884,0.00074286,0.000
 20506,0.00008376,-0.00008222,-0.00001434,-0.00000378,0.00000389,0.0003
 9316,-0.00000297,-0.00015409,0.00019043,-0.00001304,0.00007853,-0.0000
 0202,0.00000796,-0.00010392,0.00005089,-0.00003622,-0.00024965,0.00028
 578,-0.00000549,-0.00079869,0.00048125,-0.00010323,-0.00022166,-0.0002
 9282,-0.00001738,0.00002608,-0.00017961,0.00000371,0.00000573,0.000030
 92,0.00000100,0.00028046,0.00019055,0.00001501,-0.00003358,0.00000629,
 -0.00000336,0.00026254,-0.00052157,-0.00000004,-0.00030962,-0.00377929
 ,-0.00005411,-0.02736527,0.00713423,-0.00196303,-0.00252291,0.00223368
 ,-0.00026616,-0.24983765,0.10976470,-0.01562913,0.00008631,0.00006811,
 0.00000254,-0.00010722,0.00004654,-0.00000519,-0.00001135,0.00000505,0
 .00000083,0.00000454,0.00000073,0.00000035,-0.00001085,0.00000514,-0.0
 0000249,-0.00000165,0.00000897,0.00000027,0.00000169,0.00000771,0.0000
 0026,-0.00000122,0.00000928,-0.00000033,0.00005146,0.00014258,0.000030
 69,-0.00041137,0.00051047,-0.00046605,0.27706556,-0.00049202,-0.004624
 19,-0.00005626,0.00261349,-0.00209844,0.00019619,-0.00063306,0.0005300
 1,-0.00004697,0.00022077,0.00118419,0.00002331,-0.00058885,-0.00008518
 ,-0.00004688,0.00034838,0.00031884,0.00002923,0.00115520,0.00000628,0.
 00008914,-0.00004315,0.00086946,0.00000209,-0.00095158,0.00033198,-0.0
 0007611,-0.00047233,-0.00027421,-0.00003866,-0.00004457,-0.00044320,-0
 .00000567,0.00000437,0.00000900,0.00000038,0.00038745,0.00042023,0.000
 03218,0.00000144,0.00001079,0.00000018,-0.00009128,-0.00071297,-0.0000
 1220,-0.00199814,-0.00492820,-0.00018369,-0.02503717,0.01149747,-0.001
 90161,-0.00355289,0.00133804,-0.00027773,0.12500427,-0.10693129,0.0095
 1026,0.00022039,0.00015610,0.00001784,-0.00013339,0.00003170,-0.000010
 20,0.00001352,0.00000022,-0.00000268,0.00002048,0.00000279,0.00000164,
 0.00001292,0.00000020,0.00000479,0.00000375,-0.00001306,0.00000357,-0.
 00001040,-0.00000006,-0.00000082,0.00000431,-0.00001297,-0.00000308,0.
 00045228,0.00033446,0.00003918,0.01090245,-0.00567114,0.00304401,-0.11
 878957,0.11450940,0.00016143,0.00021300,-0.00135220,0.00009592,0.00000
 683,-0.00030039,-0.00000697,0.00000178,-0.00003576,-0.00000386,0.00003
 657,0.00006773,-0.00001704,0.00001440,0.00002286,0.00000975,0.00000161
 ,-0.00002174,-0.00003068,0.00000215,0.00035704,-0.00000706,0.00002775,
 -0.00016213,-0.00011079,0.00003687,0.00053727,-0.00001821,-0.00002434,
 -0.00002327,0.00000447,-0.00001629,-0.00003280,0.00000083,0.00000251,-
 0.00000452,0.00001593,0.00001673,0.00010534,-0.00000336,0.00000050,0.0
 0000877,0.00000235,-0.00004619,0.00022713,-0.00004553,-0.00032386,0.00
 012697,-0.00212834,0.00063149,-0.00213642,-0.00029582,0.00017740,0.000
 97982,-0.01554976,0.00831036,-0.04519713,0.00000330,0.00000583,0.00005
 882,-0.00000607,0.00000403,-0.00003928,0.00000070,0.00000082,-0.000000
 08,0.00000046,0.00000007,0.00000015,-0.00000227,0.,-0.00000054,0.00000
 233,0.00000253,-0.00000008,0.00000016,0.00000062,-0.00000084,-0.000002
 45,-0.00000123,-0.00000057,0.00003221,0.00001486,-0.00032684,0.0214702
 6,-0.01040290,0.00307482,0.01781627,-0.00897706,0.04423361,0.00113317,
 0.00083893,0.00187182,0.00039596,0.00062744,-0.00025606,0.00018759,-0.
 00019740,-0.00002696,-0.00013960,0.00014557,0.00008325,-0.00023161,0.0
 0017735,0.00012204,-0.00002771,-0.00021739,-0.00004536,0.00046334,-0.0
 0034025,-0.00145242,-0.00036970,0.00000764,0.00079022,0.00020926,-0.00
 033064,-0.00097612,0.00032590,-0.00014826,-0.00000279,0.00012033,0.000
 38541,0.00011188,0.00000075,0.00003268,0.00002555,-0.00036462,0.000132
 03,-0.00031973,0.00002690,-0.00002737,-0.00004965,0.00022350,0.0003863
 2,0.00046138,0.00158580,-0.00153465,0.00049228,-0.00512980,-0.02099438
 ,0.01964388,-0.00429282,0.00140477,0.00000594,-0.04179677,0.00870528,-
 0.01313671,0.00004079,0.00004082,-0.00000667,0.00000471,-0.00000847,-0
 .00002419,-0.00000119,-0.00000351,-0.00000084,0.00001095,-0.00000150,0
 .00000028,0.00000426,-0.00000724,0.00000161,-0.00000797,-0.00001461,0.
 00000521,-0.00000560,0.00000248,0.00000272,0.00001199,-0.00001363,0.00
 000082,-0.00148456,0.00058563,0.00091644,-0.00021175,-0.00201448,0.004
 63711,0.00290988,0.01147292,-0.02138815,0.04640867,0.00083542,-0.00095
 830,-0.00031293,-0.00043660,0.00107666,0.00006939,0.00042480,-0.000364
 54,0.00005136,-0.00011676,-0.00026884,-0.00009043,-0.00013783,0.000331
 54,0.00009823,-0.00017136,-0.00043496,-0.00003518,0.00057163,-0.000672
 56,-0.00050500,-0.00005982,0.00022861,0.00016071,-0.00034248,-0.000591
 96,-0.00044251,-0.00005029,0.00018568,0.00000012,-0.00007692,-0.000275
 52,-0.00003639,0.00001912,0.00001399,-0.00000754,0.00073582,-0.0000206
 1,0.00017880,-0.00009167,0.00004521,-0.00001664,-0.00045343,0.00101472
 ,-0.00030950,0.00316869,-0.00079627,0.00022273,-0.00572710,-0.02138639
 ,0.01547730,-0.00365309,0.00117066,0.00119162,0.00529501,-0.12102240,0
 .12025921,-0.00003147,-0.00000302,-0.00000965,-0.00002025,-0.00001183,
 0.00000236,-0.00002351,0.00001111,0.00000524,-0.00001228,-0.00001021,-
 0.00000131,-0.00002725,0.00001108,-0.00000760,0.00000351,0.00002752,-0
 .00000165,0.00000525,0.00001036,0.00000403,0.00000590,0.00002811,0.000
 00457,0.00039474,0.00014981,-0.00016383,0.00018336,0.00991610,-0.01367
 644,-0.00111964,-0.00575628,0.01028317,0.00090851,0.13835256,-0.000115
 96,0.00035454,-0.00000830,0.00001535,-0.00027862,-0.00005239,-0.000052
 80,0.00007059,-0.00000417,0.00008370,0.00002638,-0.00000058,-0.0001321
 5,0.00001948,0.00007263,0.00003814,-0.00003380,-0.00001313,0.00016630,
 -0.00017493,-0.00038020,-0.00008827,-0.00016441,0.00014432,0.00033080,
 0.00015641,-0.00020890,0.00006211,-0.00012702,-0.00000540,-0.00002430,
 0.00021189,0.00005554,-0.00002339,-0.00004281,0.00000451,-0.00065473,-
 0.00034883,-0.00021591,0.00002789,-0.00001489,-0.00001230,0.00003032,0
 .00060221,0.00006610,-0.00085879,0.00066921,0.00062452,0.00159009,-0.0
 0305128,0.00736258,-0.00038078,-0.00151671,-0.00049794,-0.00714776,0.1
 2412228,-0.22348328,0.00000823,-0.00000053,0.00000486,-0.00000161,-0.0
 0001021,-0.00000783,0.00000046,0.00000288,0.00000012,-0.00002052,-0.00
 000025,-0.00000246,0.00000082,0.00000218,-0.00000050,-0.00001943,0.000
 01510,-0.00000470,0.00001558,-0.00001872,0.00000077,-0.00001657,0.0000
 0889,0.00000487,0.00019044,-0.00054332,-0.00005408,-0.00196693,0.01381
 091,-0.01712469,0.00043055,-0.00135437,-0.00016575,0.00851321,-0.13239
 223,0.23390169\\0.00002303,-0.00002069,-0.00000360,-0.00001234,0.00004
 756,0.00001624,0.00001210,-0.00000916,-0.00000564,-0.00001914,-0.00001
 687,-0.00000100,0.00003527,0.00001772,-0.00003327,-0.00001787,-0.00001
 340,0.00001070,0.00000860,-0.00000424,0.00001249,-0.00000949,-0.000002
 45,0.00000286,-0.00000480,-0.00000589,-0.00000222,0.00001189,-0.000010
 45,-0.00000100,0.00000770,0.00001151,-0.00000178,0.00000013,-0.0000042
 1,0.00000331,-0.00001635,-0.00000295,0.00000153,0.00000197,0.00000265,
 -0.00000547,0.00000418,-0.00000980,0.00000188,-0.00000812,0.00002019,-
 0.00000054,0.00001049,-0.00002021,0.00000067,-0.00003111,0.00002154,-0
 .00000284,0.00000131,-0.00001287,-0.00000382,-0.00000386,0.00000008,0.
 00000416,-0.00000627,0.00000425,0.00000041,-0.00000056,0.00000399,-0.0
 0000080,-0.00000069,-0.00000074,0.00000089,-0.00000079,0.00000208,-0.0
 0000218,-0.00000114,0.00000002,0.00000019,0.00000183,0.00000042,-0.000
 00053,0.00000081,-0.00000043,0.00000378,0.00000146,0.00000133,-0.00000
 085,0.00000488,-0.00000075,0.00000269,0.00000812,-0.00000424,0.0000074
 5,-0.00000127,0.00000601,-0.00000371\\\@
 The archive entry for this job was punched.


 IBM COMPATIBILITY IS LIKE PREGNANCY. YOU ARE OR
 OR YOU ARE NOT. -- ADAM OSBORNE
 Job cpu time:       0 days  1 hours 30 minutes 49.0 seconds.
 Elapsed time:       0 days  0 hours 11 minutes 22.0 seconds.
 File lengths (MBytes):  RWF=    499 Int=      0 D2E=      0 Chk=     19 Scr=      1
 Normal termination of Gaussian 16 at Mon Aug  1 13:23:43 2022.
